#INFO: **** input file is /Users/mario/Desktop/oh_fci_calculations/anion.py ****
import numpy as np
import pyscf
from   pyscf import gto,scf,mcscf,mp,cc,ci

def complete_es(mol,mf,EHF,nf):
    nel_frozen  = (nf,nf)
    orb_frozen  = nf     
    na,nb       = (mol.nelectron+mol.spin)//2-nf,(mol.nelectron-mol.spin)//2-nf
    nact        = mol.nao_nr()-nf
    mc          = mcscf.CASCI(mf,nact,(na,nb))
    mc.frozen   = orb_frozen
    ECASCI      = mc.kernel()[0]
    return ECASCI

def geometry(d):
    return [['O',(0,0,0)],['H',(0,0,d)]]

outf = open('anion_results.txt','w')
for R in ['0.70','0.72','0.74','0.76','0.78',
          '0.80','0.82','0.84','0.86','0.88',
          '0.90','0.92','0.94','0.96','0.98',
          '1.00','1.02','1.04','1.06','1.08',
          '1.10','1.12','1.14','1.16','1.18','1.20']:
    mol = gto.Mole()
    mol.build(atom     = geometry(float(R)),
              basis    = '6-31++g**',
              symmetry = 'coov',
              charge   = -1,
              spin     = 0,
              max_memory = 16000,
              verbose  = 6)
    mf             = scf.ROHF(mol)
    mf             = scf.newton(mf)
    EHF            = mf.kernel()
    a              = mf.stability()[0]
    EHF            = mf.kernel(a,mf.mo_occ)
    mf.analyze()
    ECASCI = complete_es(mol,mf,EHF,nf=1)
    outf.write('%.12f %.12f %.12f \n' % (float(R),EHF,ECASCI))

#INFO: ******************** input file end ********************


System: uname_result(system='Darwin', node='Marios-MacBook-Pro.local', release='20.6.0', version='Darwin Kernel Version 20.6.0: Mon Aug 30 06:12:21 PDT 2021; root:xnu-7195.141.6~3/RELEASE_X86_64', machine='x86_64')  Threads 1
Python 3.9.6 | packaged by conda-forge | (default, Jul 11 2021, 03:36:15) 
[Clang 11.1.0 ]
numpy 1.21.2  scipy 1.7.1
Date: Wed Jan 26 09:59:15 2022
PySCF version 1.7.6
PySCF path  /Users/mario/anaconda3/envs/qiskit_forging_2021_08_30/lib/python3.9/site-packages/pyscf

[CONFIG] conf_file None
[INPUT] verbose = 6
[INPUT] max_memory = 16000 
[INPUT] num. atoms = 2
[INPUT] num. electrons = 10
[INPUT] charge = -1
[INPUT] spin (= nelec alpha-beta = 2S) = 0
[INPUT] symmetry Coov subgroup None
[INPUT] Mole.unit = angstrom
[INPUT]  1 O      0.000000000000   0.000000000000   0.000000000000 AA    0.000000000000   0.000000000000   0.000000000000 Bohr
[INPUT]  2 H      0.000000000000   0.000000000000   0.700000000000 AA    0.000000000000   0.000000000000   1.322808287196 Bohr
[INPUT] ---------------- BASIS SET ---------------- 
[INPUT] l, kappa, [nprim/nctr], expnt,             c_1 c_2 ...
[INPUT] H
[INPUT] 0    0    [3    /1   ]  18.731137         0.0334946
                                2.8253937         0.23472695
                                0.6401217         0.81375733
[INPUT] 0    0    [1    /1   ]  0.1612778            1
[INPUT] 0    0    [1    /1   ]  0.036                1
[INPUT] 1    0    [1    /1   ]  1.1                  1
[INPUT] O
[INPUT] 0    0    [6    /1   ]  5484.6717         0.0018311
                                825.23495         0.0139501
                                188.04696         0.0684451
                                52.9645           0.2327143
                                16.89757          0.470193
                                5.7996353         0.3585209
[INPUT] 0    0    [3    /1   ]  15.539616         -0.1107775
                                3.5999336         -0.1480263
                                1.0137618         1.130767
[INPUT] 0    0    [1    /1   ]  0.2700058            1
[INPUT] 0    0    [1    /1   ]  0.0845               1
[INPUT] 1    0    [3    /1   ]  15.539616         0.0708743
                                3.5999336         0.3397528
                                1.0137618         0.7271586
[INPUT] 1    0    [1    /1   ]  0.2700058            1
[INPUT] 1    0    [1    /1   ]  0.0845               1
[INPUT] 2    0    [1    /1   ]  0.8                  1

nuclear repulsion = 6.04773955337143
point group symmetry = Coov
num. orbitals of irrep A1 = 12
num. orbitals of irrep E1x = 5
num. orbitals of irrep E1y = 5
num. orbitals of irrep E2x = 1
num. orbitals of irrep E2y = 1
number of shells = 12
number of NR pGTOs = 39
number of NR cGTOs = 24
basis = 6-31++g**
ecp = {}
CPU time:         1.11
Freeze 0 electrons in irreps []
    10 free electrons in irreps A1 E1x E1y E2x E2y




******** <class 'pyscf.scf.hf_symm.SymAdaptedROHF'> ********
method = SymAdaptedROHF-ROHF-RHF
initial guess = minao
damping factor = 0
level_shift factor = 0
DIIS = <class 'pyscf.scf.diis.CDIIS'>
diis_start_cycle = 1
diis_space = 8
SCF conv_tol = 1e-09
SCF conv_tol_grad = None
SCF max_cycles = 50
direct_scf = True
direct_scf_tol = 1e-13
chkfile to save SCF result = /var/folders/7m/f464jvrs78n7m3djcnsxfxgr0000gn/T/tmpx24k7bts
max_memory 16000 MB (current use 0 MB)
num. doubly occ = 5  num. singly occ = 0
******** <class 'pyscf.scf.hf_symm.SymAdaptedROHF'> Newton solver flags ********
SCF tol = 1e-09
conv_tol_grad = None
max. SCF cycles = 50
direct_scf = True
direct_scf_tol = 1e-13
chkfile to save SCF result = /var/folders/7m/f464jvrs78n7m3djcnsxfxgr0000gn/T/tmpx24k7bts
max_cycle_inner = 12
max_stepsize = 0.05
ah_start_tol = 1e+09
ah_level_shift = 0
ah_conv_tol = 1e-12
ah_lindep = 1e-14
ah_start_cycle = 1
ah_max_cycle = 40
ah_grad_trust_region = 2.5
kf_interval = 4
kf_trust_region = 5
canonicalization = True
max_memory 16000 MB (current use 0 MB)
Set conv_tol_grad to 3.16228e-05
Initial guess density matrix is not given. Generating initial guess from minao
Nelec from initial guess = (4.4987806809268065, 4.4987806809268065)
HOMO (E1x) = -0.486547821099519  LUMO (A1) = 0.0454459266019639
double occ irrep_nelec = [3, 1, 1, 0, 0]
single occ irrep_nelec = [0, 0, 0, 0, 0]
  Roothaan mo_energy =
[-20.82218403  -1.67203324  -0.6928809    0.04544593   0.21120712
   0.27301198   0.45724008   1.2248038    1.46207943   1.67823676
   3.09497906   4.94983006  -0.48654782   0.22878073   1.29362497
   1.81624619   3.24632455  -0.48654782   0.22878073   1.29362497
   1.81624619   3.24632455   1.97023418   1.97023418]
  alpha mo_energy =
[-20.82218403  -1.67203324  -0.6928809    0.04544593   0.21120712
   0.27301198   0.45724008   1.2248038    1.46207943   1.67823676
   3.09497906   4.94983006  -0.48654782   0.22878073   1.29362497
   1.81624619   3.24632455  -0.48654782   0.22878073   1.29362497
   1.81624619   3.24632455   1.97023418   1.97023418]
  beta  mo_energy =
[-20.82218403  -1.67203324  -0.6928809    0.04544593   0.21120712
   0.27301198   0.45724008   1.2248038    1.46207943   1.67823676
   3.09497906   4.94983006  -0.48654782   0.22878073   1.29362497
   1.81624619   3.24632455  -0.48654782   0.22878073   1.29362497
   1.81624619   3.24632455   1.97023418   1.97023418]
E1 = -122.0423360087242  Ecoul = 40.86631416571554
Initial guess E= -75.1282822896372  |g|= 0.766549
    CPU time for initializing second order scf      0.04 sec, wall time      0.04 sec
    |g|= 0.767 (keyframe)
CIAH eigen-sel 0
... AH step 1  index= 0  |dx|= 0.51012  eig= -0.090732  v[0]= -0.99307  lindep= 0.5876
... scale rotation size 0.992934
    imic 1(1)  |g|= 0.51  |dxi|= 0.118  max(|x|)= 0.0504  |dr|= 0.118  eig= -0.0907  seig= 0.588
Set ah_start_tol 3.83274, ah_start_cycle 1, max_cycle 12
CIAH eigen-sel 0
... AH step 2  index= 0  |dx|= 0.25626  eig= -0.056484  v[0]= 0.97317  lindep= 0.028082
... scale rotation size 0.327445
    imic 2(2)  |g|= 0.276  |dxi|= 0.0774  max(|x|)= 0.153  |dr|= 0.16  eig= -0.0565  seig= 0.0281
Set ah_start_tol 2.55154, ah_start_cycle 1, max_cycle 12
CIAH eigen-sel 0
... AH step 3  index= 0  |dx|= 0.041988  eig= -0.036229  v[0]= 0.96954  lindep= 0.0010607
... scale rotation size 0.300882
    imic 3(3)  |g|= 0.199  |dxi|= 0.076  max(|x|)= 0.166  |dr|= 0.218  eig= -0.0362  seig= 0.00106
Set ah_start_tol 1.3821, ah_start_cycle 1, max_cycle 12
CIAH eigen-sel 0
... AH step 4  index= 0  |dx|= 0.019251  eig= -0.019975  v[0]= 0.98011  lindep= 0.00016586
... scale rotation size 0.371519
    imic 4(4)  |g|= 0.128  |dxi|= 0.0752  max(|x|)= 0.135  |dr|= 0.282  eig= -0.02  seig= 0.000166
Set ah_start_tol 0.996268, ah_start_cycle 1, max_cycle 12
E1 = -118.75083645295675  Ecoul = 37.45079556437798
Adjust keyframe g_orb to |g|= 0.159  |g-correction|=0.16  E=-75.2523013352 dE=-0.12402
Set kf_trust_region = 5
CIAH eigen-sel 0
... AH step 5  index= 0  |dx|= 0.06164  eig= -0.013905  v[0]= 0.98463  lindep= 2.5897e-05
... scale rotation size 0.428179
    imic 5(5)  |g|= 0.109  |dxi|= 0.0759  max(|x|)= 0.117  |dr|= 0.0759  eig= -0.0139  seig= 2.59e-05
Set ah_start_tol 0.796695, ah_start_cycle 1, max_cycle 15
CIAH eigen-sel 0
... AH step 6  index= 0  |dx|= 0.01627  eig= -0.0055436  v[0]= 0.99399  lindep= 2.497e-05
... scale rotation size 0.705461
    imic 6(6)  |g|= 0.0277  |dxi|= 0.0777  max(|x|)= 0.0709  |dr|= 0.153  eig= -0.00554  seig= 2.5e-05
Set ah_start_tol 0.545442, ah_start_cycle 1, max_cycle 15
CIAH eigen-sel 0
... AH step 7  index= 0  |dx|= 0.0058678  eig= -0.00056781  v[0]= 0.99932  lindep= 9.3456e-06
    imic 7(7)  |g|= 0.00587  |dxi|= 0.037  max(|x|)= 0.0212  |dr|= 0.188  eig= -0.000568  seig= 9.35e-06
Set ah_start_tol 0.138495, ah_start_cycle 1, max_cycle 15
irreps of each MO [ 0  0  0  0  2  3  0  2  3  0  2  3  0 11  3  0  2 10  0  0  0  2  3  0]
E1 = -119.92425799698898  Ecoul = 38.633383582071126
Adjust keyframe g_orb to |g|= 0.128  |g-correction|=0.128  E=-75.2431348615 dE=0.0091665
Out of trust region. Restore previouse step
    tot inner=7  10 JK  |g|= 0.0277  |u-1|= 0.037
    CPU time for aug_hess in 7 inner iters      0.02 sec, wall time      0.02 sec
Overlap to initial guess, SVD = [0.99945633 0.99581498 0.99547587 0.99547587]
Overlap to last step, SVD = [0.99945633 0.99581498 0.99547587 0.99547587]
HOMO (E1x) = -0.071351483249099  LUMO (A1) = 0.225603135083569
double occ irrep_nelec = [3, 1, 1, 0, 0]
single occ irrep_nelec = [0, 0, 0, 0, 0]
  Roothaan mo_energy =
[-20.06807482  -0.96103963  -0.2487225    0.22560314   0.4721294
   0.57089387   0.78529735   1.68277939   1.97205607   2.18454607
   3.61272628   5.52130747  -0.07135148   0.50841972   1.80032318
   2.35187358   3.74215968  -0.07135148   0.50841972   1.80032318
   2.35187358   3.74215968   2.52067505   2.52067505]
  alpha mo_energy =
[-20.06807482  -0.96103963  -0.2487225    0.22560314   0.4721294
   0.57089387   0.78529735   1.68277939   1.97205607   2.18454607
   3.61272628   5.52130747  -0.07135148   0.50841972   1.80032318
   2.35187358   3.74215968  -0.07135148   0.50841972   1.80032318
   2.35187358   3.74215968   2.52067505   2.52067505]
  beta  mo_energy =
[-20.06807482  -0.96103963  -0.2487225    0.22560314   0.4721294
   0.57089387   0.78529735   1.68277939   1.97205607   2.18454607
   3.61272628   5.52130747  -0.07135148   0.50841972   1.80032318
   2.35187358   3.74215968  -0.07135148   0.50841972   1.80032318
   2.35187358   3.74215968   2.52067505   2.52067505]
E1 = -119.76177075221122  Ecoul = 38.46386175548336
macro= 0  E= -75.2501694433564  delta_E= -0.121887  |g|= 0.159339  3 KF 10 JK
    CPU time for cycle= 1      0.02 sec, wall time      0.02 sec
    |g|= 0.0943 (keyframe), |g-correction|= 0.112
Set  kf_trust_region = 5
CIAH eigen-sel 0
... AH step 1  index= 0  |dx|= 0.065056  eig= -0.0071771  v[0]= -0.99594  lindep= 0.0013694
... scale rotation size 0.965955
    imic 1(1)  |g|= 0.0639  |dxi|= 0.0873  max(|x|)= 0.0518  |dr|= 0.0873  eig= -0.00718  seig= 0.00137
Set ah_start_tol 0.471649, ah_start_cycle 1, max_cycle 16
CIAH eigen-sel 0
... AH step 2  index= 0  |dx|= 0.0194  eig= -0.001109  v[0]= 0.99958  lindep= 0.00035734
    imic 2(2)  |g|= 0.0194  |dxi|= 0.0289  max(|x|)= 0.0155  |dr|= 0.0995  eig= -0.00111  seig= 0.000357
Set ah_start_tol 0.319434, ah_start_cycle 1, max_cycle 16
CIAH eigen-sel 0
... AH step 3  index= 0  |dx|= 0.0046768  eig= -4.5664e-05  v[0]= 0.99999  lindep= 1.1259e-05
    imic 3(3)  |g|= 0.00468  |dxi|= 0.005  max(|x|)= 0.00417  |dr|= 0.101  eig= -4.57e-05  seig= 1.13e-05
Set ah_start_tol 0.0970414, ah_start_cycle 1, max_cycle 16
E1 = -119.22047982856128  Ecoul = 37.9148870120827
Adjust keyframe g_orb to |g|= 0.0125  |g-correction|=0.0143  E=-75.2578532631 dE=-0.0076838
Out of trust region. Restore previouse step
irreps of each MO [ 0  0  0  0  2  3  0  2  3  0  2  3  0 11  3  0  2 10  0  0  0  2  3  0]
    tot inner=3  5 JK  |g|= 0.0194  |u-1|= 0.005
    CPU time for aug_hess in 3 inner iters      0.01 sec, wall time      0.01 sec
Overlap to initial guess, SVD = [0.99958046 0.9954863  0.98872921 0.98872921]
Overlap to last step, SVD = [0.99998718 0.99905742 0.99800324 0.99800324]
HOMO (E1y) = -0.11108849236417  LUMO (A1) = 0.223097531951744
double occ irrep_nelec = [3, 1, 1, 0, 0]
single occ irrep_nelec = [0, 0, 0, 0, 0]
  Roothaan mo_energy =
[-20.16494227  -1.01629856  -0.30240904   0.22309753   0.46440406
   0.55800264   0.76842847   1.64788576   1.92830765   2.14297527
   3.56893599   5.4653883   -0.11108849   0.50124504   1.75898545
   2.3054798    3.70080179  -0.11108849   0.50124504   1.75898545
   2.3054798    3.70080179   2.47312648   2.47312648]
  alpha mo_energy =
[-20.16494227  -1.01629856  -0.30240904   0.22309753   0.46440406
   0.55800264   0.76842847   1.64788576   1.92830765   2.14297527
   3.56893599   5.4653883   -0.11108849   0.50124504   1.75898545
   2.3054798    3.70080179  -0.11108849   0.50124504   1.75898545
   2.3054798    3.70080179   2.47312648   2.47312648]
  beta  mo_energy =
[-20.16494227  -1.01629856  -0.30240904   0.22309753   0.46440406
   0.55800264   0.76842847   1.64788576   1.92830765   2.14297527
   3.56893599   5.4653883   -0.11108849   0.50124504   1.75898545
   2.3054798    3.70080179  -0.11108849   0.50124504   1.75898545
   2.3054798    3.70080179   2.47312648   2.47312648]
E1 = -119.19963368742206  Ecoul = 37.89409034024261
macro= 1  E= -75.257803793808  delta_E= -0.00763435  |g|= 0.0943297  2 KF 5 JK
    CPU time for cycle= 2      0.01 sec, wall time      0.01 sec
    |g|= 0.0249 (keyframe), |g-correction|= 0.0141
Set  kf_trust_region = 5
CIAH eigen-sel 0
... AH step 1  index= 0  |dx|= 0.012273  eig= -4.9476e-05  v[0]= -0.99999  lindep= 2.4954e-05
    imic 1(1)  |g|= 0.0123  |dxi|= 0.00517  max(|x|)= 0.00431  |dr|= 0.00517  eig= -4.95e-05  seig= 2.5e-05
Set ah_start_tol 0.124663, ah_start_cycle 1, max_cycle 19
CIAH eigen-sel 0
... AH step 2  index= 0  |dx|= 0.010974  eig= -9.222e-05  v[0]= 0.99997  lindep= 2.4481e-05
    imic 2(2)  |g|= 0.011  |dxi|= 0.00827  max(|x|)= 0.00531  |dr|= 0.00801  eig= -9.22e-05  seig= 2.45e-05
Set ah_start_tol 0.0613682, ah_start_cycle 1, max_cycle 19
CIAH eigen-sel 0
... AH step 3  index= 0  |dx|= 0.00082711  eig= -1.7087e-05  v[0]= 1  lindep= 5.6724e-06
    imic 3(3)  |g|= 0.000827  |dxi|= 0.00295  max(|x|)= 0.00228  |dr|= 0.0099  eig= -1.71e-05  seig= 5.67e-06
Set ah_start_tol 0.0548703, ah_start_cycle 1, max_cycle 19
E1 = -119.28260528920804  Ecoul = 37.976902125715675
Adjust keyframe g_orb to |g|= 0.000859  |g-correction|=0.000169  E=-75.2579636101 dE=-0.00015982
Set kf_trust_region = 5
CIAH eigen-sel 0
... AH step 4  index= 0  |dx|= 0.00021908  eig= -3.0732e-07  v[0]= 1  lindep= 8.0264e-08
    imic 4(4)  |g|= 0.000219  |dxi|= 0.000541  max(|x|)= 0.000469  |dr|= 0.000541  eig= -3.07e-07  seig= 8.03e-08
Set ah_start_tol 0.00429746, ah_start_cycle 1, max_cycle 26
CIAH eigen-sel 0
... AH step 5  index= 0  |dx|= 3.292e-05  eig= -9.2191e-09  v[0]= 1  lindep= 2.1899e-09
    imic 5(5)  |g|= 3.29e-05  |dxi|= 6.02e-05  max(|x|)= 3.95e-05  |dr|= 0.000577  eig= -9.22e-09  seig= 2.19e-09
Set ah_start_tol 0.00109542, ah_start_cycle 1, max_cycle 26
CIAH eigen-sel 0
... AH step 6  index= 0  |dx|= 3.6294e-06  eig= -1.4814e-10  v[0]= 1  lindep= 2.8299e-11
    imic 6(6)  |g|= 3.63e-06  |dxi|= 6.61e-06  max(|x|)= 2.91e-06  |dr|= 0.000579  eig= -1.48e-10  seig= 2.83e-11
Set ah_start_tol 0.000164601, ah_start_cycle 1, max_cycle 26
irreps of each MO [ 0  0  0  0  2  3  0  2  3  0  2  3  0 11  3  0  2 10  0  0  0  2  3  0]
    tot inner=6  8 JK  |g|= 3.63e-06  |u-1|= 0.000579
    CPU time for aug_hess in 6 inner iters      0.02 sec, wall time      0.02 sec
Overlap to initial guess, SVD = [0.99957236 0.99592125 0.9894025  0.9894025 ]
Overlap to last step, SVD = [0.9999882  0.9999882  0.99997254]
HOMO (E1y) = -0.104987261006259  LUMO (A1) = 0.223400578888519
double occ irrep_nelec = [3, 1, 1, 0, 0]
single occ irrep_nelec = [0, 0, 0, 0, 0]
  Roothaan mo_energy =
[-20.15000422  -1.00849829  -0.29574886   0.22340058   0.46518536
   0.55957181   0.77062784   1.65248818   1.93443287   2.14870931
   3.57505491   5.47367168  -0.10498726   0.50249912   1.76492023
   2.31198226   3.70651232  -0.10498726   0.50249912   1.76492023
   2.31198226   3.70651232   2.47959776   2.47959776]
  alpha mo_energy =
[-20.15000422  -1.00849829  -0.29574886   0.22340058   0.46518536
   0.55957181   0.77062784   1.65248818   1.93443287   2.14870931
   3.57505491   5.47367168  -0.10498726   0.50249912   1.76492023
   2.31198226   3.70651232  -0.10498726   0.50249912   1.76492023
   2.31198226   3.70651232   2.47959776   2.47959776]
  beta  mo_energy =
[-20.15000422  -1.00849829  -0.29574886   0.22340058   0.46518536
   0.55957181   0.77062784   1.65248818   1.93443287   2.14870931
   3.57505491   5.47367168  -0.10498726   0.50249912   1.76492023
   2.31198226   3.70651232  -0.10498726   0.50249912   1.76492023
   2.31198226   3.70651232   2.47959776   2.47959776]
E1 = -119.28295517946697  Ecoul = 37.97725169491768
macro= 2  E= -75.2579639311779  delta_E= -0.000160137  |g|= 0.000859492  2 KF 8 JK
    CPU time for cycle= 3      0.02 sec, wall time      0.02 sec
    |g|= 1.05e-05 (keyframe), |g-correction|= 1.01e-05
Set  kf_trust_region = 5
CIAH eigen-sel 0
... AH step 1  index= 0  |dx|= 1.1687e-05  eig= -1.9152e-12  v[0]= -1  lindep= 4.366e-11
    imic 1(1)  |g|= 1.17e-05  |dxi|= 7.52e-07  max(|x|)= 3.31e-07  |dr|= 7.52e-07  eig= -1.92e-12  seig= 4.37e-11
Set ah_start_tol 5.27473e-05, ah_start_cycle 1, max_cycle 34
    tot inner=1  2 JK  |g|= 1.17e-05  |u-1|= 7.52e-07
    CPU time for aug_hess in 1 inner iters      0.01 sec, wall time      0.01 sec
Overlap to initial guess, SVD = [0.99957236 0.99592127 0.98940249 0.98940249]
Overlap to last step, SVD = []
HOMO (E1y) = -0.104987276509948  LUMO (A1) = 0.223400564441443
double occ irrep_nelec = [3, 1, 1, 0, 0]
single occ irrep_nelec = [0, 0, 0, 0, 0]
  Roothaan mo_energy =
[-20.15000432  -1.00849851  -0.29574883   0.22340056   0.46518537
   0.55957179   0.77062778   1.65248819   1.93443277   2.14870925
   3.57505488   5.47367156  -0.10498728   0.50249911   1.7649202
   2.31198218   3.70651223  -0.10498728   0.50249911   1.7649202
   2.31198218   3.70651223   2.47959772   2.47959772]
  alpha mo_energy =
[-20.15000432  -1.00849851  -0.29574883   0.22340056   0.46518537
   0.55957179   0.77062778   1.65248819   1.93443277   2.14870925
   3.57505488   5.47367156  -0.10498728   0.50249911   1.7649202
   2.31198218   3.70651223  -0.10498728   0.50249911   1.7649202
   2.31198218   3.70651223   2.47959772   2.47959772]
  beta  mo_energy =
[-20.15000432  -1.00849851  -0.29574883   0.22340056   0.46518537
   0.55957179   0.77062778   1.65248819   1.93443277   2.14870925
   3.57505488   5.47367156  -0.10498728   0.50249911   1.7649202
   2.31198218   3.70651223  -0.10498728   0.50249911   1.7649202
   2.31198218   3.70651223   2.47959772   2.47959772]
E1 = -119.28295453322129  Ecoul = 37.97725104866999
macro= 3  E= -75.2579639311799  delta_E= -2.00373e-12  |g|= 1.05495e-05  1 KF 2 JK
    CPU time for cycle= 4      0.01 sec, wall time      0.01 sec
Canonicalize SCF orbitals
macro X = 4  E=-75.2579639311799  |g|= 1.05495e-05  total 9 KF 30 JK
    CPU time for Second order SCF      0.10 sec, wall time      0.10 sec
converged SCF energy = -75.2579639311799
tol 0.0001  toloose 0.01
max_cycle 50  max_space 12  max_memory 2000  incore True
davidson 0 1  |r|= 3.72  e= [3.16199226]  max|de|= 3.16  lindep= 0.908
davidson 1 2  |r|= 1.77  e= [2.68485316]  max|de|= -0.477  lindep= 0.828
davidson 2 3  |r|= 1.17  e= [1.80791578]  max|de|= -0.877  lindep= 0.641
davidson 3 4  |r|= 0.718  e= [1.45007888]  max|de|= -0.358  lindep= 0.66
davidson 4 5  |r|= 0.25  e= [1.38399194]  max|de|= -0.0661  lindep=  0.8
davidson 5 6  |r|= 0.146  e= [1.36819298]  max|de|= -0.0158  lindep= 0.758
davidson 6 7  |r|= 0.042  e= [1.36510537]  max|de|= -0.00309  lindep= 0.794
davidson 7 8  |r|= 0.00899  e= [1.36493993]  max|de|= -0.000165  lindep= 0.839
root 0 converged  |r|= 0.00189  e= 1.364932683047596  max|de|= -7.24e-06
converged 8 9  |r|= 0.00189  e= [1.36493268]  max|de|= -7.24e-06
ROHF wavefunction is stable in the internal stability analysis
Freeze 0 electrons in irreps []
    10 free electrons in irreps A1 E1x E1y E2x E2y




******** <class 'pyscf.scf.hf_symm.SymAdaptedROHF'> ********
method = SymAdaptedROHF-ROHF-RHF
initial guess = minao
damping factor = 0
level_shift factor = 0
DIIS = <class 'pyscf.scf.diis.CDIIS'>
diis_start_cycle = 1
diis_space = 8
SCF conv_tol = 1e-09
SCF conv_tol_grad = None
SCF max_cycles = 50
direct_scf = True
direct_scf_tol = 1e-13
chkfile to save SCF result = /var/folders/7m/f464jvrs78n7m3djcnsxfxgr0000gn/T/tmpx24k7bts
max_memory 16000 MB (current use 0 MB)
num. doubly occ = 5  num. singly occ = 0
******** <class 'pyscf.scf.hf_symm.SymAdaptedROHF'> Newton solver flags ********
SCF tol = 1e-09
conv_tol_grad = None
max. SCF cycles = 50
direct_scf = True
direct_scf_tol = 1e-13
chkfile to save SCF result = /var/folders/7m/f464jvrs78n7m3djcnsxfxgr0000gn/T/tmpx24k7bts
max_cycle_inner = 12
max_stepsize = 0.05
ah_start_tol = 1e+09
ah_level_shift = 0
ah_conv_tol = 1e-12
ah_lindep = 1e-14
ah_start_cycle = 1
ah_max_cycle = 40
ah_grad_trust_region = 2.5
kf_interval = 4
kf_trust_region = 5
canonicalization = True
max_memory 16000 MB (current use 0 MB)
Set conv_tol_grad to 3.16228e-05
HOMO (E1y) = -0.104987276509947  LUMO (A1) = 0.223400564441439
double occ irrep_nelec = [3, 1, 1, 0, 0]
single occ irrep_nelec = [0, 0, 0, 0, 0]
  Roothaan mo_energy =
[-20.15000432  -1.00849851  -0.29574883   0.22340056   0.46518537
   0.55957179   0.77062778   1.65248819   1.93443277   2.14870925
   3.57505488   5.47367156  -0.10498728   0.50249911   1.7649202
   2.31198218   3.70651223  -0.10498728   0.50249911   1.7649202
   2.31198218   3.70651223   2.47959772   2.47959772]
  alpha mo_energy =
[-20.15000432  -1.00849851  -0.29574883   0.22340056   0.46518537
   0.55957179   0.77062778   1.65248819   1.93443277   2.14870925
   3.57505488   5.47367156  -0.10498728   0.50249911   1.7649202
   2.31198218   3.70651223  -0.10498728   0.50249911   1.7649202
   2.31198218   3.70651223   2.47959772   2.47959772]
  beta  mo_energy =
[-20.15000432  -1.00849851  -0.29574883   0.22340056   0.46518537
   0.55957179   0.77062778   1.65248819   1.93443277   2.14870925
   3.57505488   5.47367156  -0.10498728   0.50249911   1.7649202
   2.31198218   3.70651223  -0.10498728   0.50249911   1.7649202
   2.31198218   3.70651223   2.47959772   2.47959772]
E1 = -119.28295453322131  Ecoul = 37.97725104867
Initial guess E= -75.2579639311799  |g|= 1.16872e-05
    CPU time for initializing second order scf      0.01 sec, wall time      0.01 sec
    |g|= 1.17e-05 (keyframe)
CIAH eigen-sel 0
... AH step 1  index= 0  |dx|= 1.6853e-05  eig= -1.1183e-11  v[0]= -1  lindep= 1.3659e-10
    imic 1(1)  |g|= 1.69e-05  |dxi|= 9.57e-07  max(|x|)= 5.84e-07  |dr|= 9.57e-07  eig= -1.12e-11  seig= 1.37e-10
Set ah_start_tol 5.84359e-05, ah_start_cycle 1, max_cycle 34
CIAH eigen-sel 0
... AH step 2  index= 0  |dx|= 6.3998e-06  eig= -7.1356e-11  v[0]= 1  lindep= 1.8746e-11
    imic 2(2)  |g|= 6.4e-06  |dxi|= 8.4e-06  max(|x|)= 7.76e-06  |dr|= 9.12e-06  eig= -7.14e-11  seig= 1.87e-11
Set ah_start_tol 8.42636e-05, ah_start_cycle 1, max_cycle 34
    tot inner=2  3 JK  |g|= 6.4e-06  |u-1|= 9.12e-06
    CPU time for aug_hess in 2 inner iters      0.00 sec, wall time      0.00 sec
Overlap to initial guess, SVD = []
Overlap to last step, SVD = []
HOMO (E1x) = -0.104984204272495  LUMO (A1) = 0.223400690979174
double occ irrep_nelec = [3, 1, 1, 0, 0]
single occ irrep_nelec = [0, 0, 0, 0, 0]
  Roothaan mo_energy =
[-20.14999512  -1.00849458  -0.2957452    0.22340069   0.46518575
   0.5595725    0.77062874   1.65249041   1.93443567   2.14871217
   3.57505765   5.4736756   -0.1049842    0.50249969   1.76492323
   2.31198523   3.7065147   -0.1049842    0.50249969   1.76492323
   2.31198523   3.7065147    2.47960095   2.47960095]
  alpha mo_energy =
[-20.14999512  -1.00849458  -0.2957452    0.22340069   0.46518575
   0.5595725    0.77062874   1.65249041   1.93443567   2.14871217
   3.57505765   5.4736756   -0.1049842    0.50249969   1.76492323
   2.31198523   3.7065147   -0.1049842    0.50249969   1.76492323
   2.31198523   3.7065147    2.47960095   2.47960095]
  beta  mo_energy =
[-20.14999512  -1.00849458  -0.2957452    0.22340069   0.46518575
   0.5595725    0.77062874   1.65249041   1.93443567   2.14871217
   3.57505765   5.4736756   -0.1049842    0.50249969   1.76492323
   2.31198523   3.7065147   -0.1049842    0.50249969   1.76492323
   2.31198523   3.7065147    2.47960095   2.47960095]
E1 = -119.28300033164814  Ecoul = 37.97729684701442
macro= 0  E= -75.2579639312623  delta_E= -8.23945e-11  |g|= 1.16872e-05  1 KF 3 JK
    CPU time for cycle= 1      0.01 sec, wall time      0.01 sec
Canonicalize SCF orbitals
macro X = 1  E=-75.2579639312623  |g|= 1.16872e-05  total 2 KF 5 JK
    CPU time for Second order SCF      0.02 sec, wall time      0.02 sec
converged SCF energy = -75.2579639312623
**** SCF Summaries ****
Total Energy =                         -75.257963931262282
Nuclear Repulsion Energy =               6.047739553371430
One-electron Energy =                 -119.283000331648140
Two-electron Energy =                   37.977296847014422
Wave-function symmetry = Coov
occupancy for each irrep:     A1  E1x  E1y  E2x  E2y
double occ                     3    1    1    0    0
single occ                     0    0    0    0    0
**** MO energy ****
                          Roothaan           | alpha              | beta
MO #1   (A1  #1 ) energy= -20.1499951234053  | -20.1499951234053  | -20.1499951234053  occ= 2
MO #2   (A1  #2 ) energy= -1.00849458297751  | -1.00849458297751  | -1.00849458297751  occ= 2
MO #3   (A1  #3 ) energy= -0.295745203883901 | -0.295745203883901 | -0.295745203883901 occ= 2
MO #4   (E1x #1 ) energy= -0.104984204271483 | -0.104984204271483 | -0.104984204271483 occ= 2
MO #5   (E1y #1 ) energy= -0.104984204271483 | -0.104984204271483 | -0.104984204271483 occ= 2
MO #6   (A1  #4 ) energy= 0.223400690978368  | 0.223400690978368  | 0.223400690978368  occ= 0
MO #7   (A1  #5 ) energy= 0.465185750901833  | 0.465185750901832  | 0.465185750901832  occ= 0
MO #8   (E1x #2 ) energy= 0.502499690773863  | 0.502499690773862  | 0.502499690773862  occ= 0
MO #9   (E1y #2 ) energy= 0.502499690773862  | 0.502499690773862  | 0.502499690773862  occ= 0
MO #10  (A1  #6 ) energy= 0.559572500888319  | 0.55957250088832   | 0.55957250088832   occ= 0
MO #11  (A1  #7 ) energy= 0.770628740765823  | 0.770628740765834  | 0.770628740765834  occ= 0
MO #12  (A1  #8 ) energy= 1.65249041012968   | 1.65249041012968   | 1.65249041012968   occ= 0
MO #13  (E1x #3 ) energy= 1.76492322714318   | 1.76492322714318   | 1.76492322714318   occ= 0
MO #14  (E1y #3 ) energy= 1.76492322714318   | 1.76492322714318   | 1.76492322714318   occ= 0
MO #15  (A1  #9 ) energy= 1.93443567275938   | 1.93443567275938   | 1.93443567275938   occ= 0
MO #16  (A1  #10) energy= 2.14871216536543   | 2.14871216536544   | 2.14871216536544   occ= 0
MO #17  (E1x #4 ) energy= 2.31198522956741   | 2.31198522956741   | 2.31198522956741   occ= 0
MO #18  (E1y #4 ) energy= 2.31198522956741   | 2.31198522956741   | 2.31198522956741   occ= 0
MO #19  (E2x #1 ) energy= 2.47960094738251   | 2.47960094738251   | 2.47960094738251   occ= 0
MO #20  (E2y #1 ) energy= 2.47960094738252   | 2.47960094738252   | 2.47960094738252   occ= 0
MO #21  (A1  #11) energy= 3.57505764916666   | 3.57505764916666   | 3.57505764916666   occ= 0
MO #22  (E1x #5 ) energy= 3.70651469610094   | 3.70651469610094   | 3.70651469610094   occ= 0
MO #23  (E1y #5 ) energy= 3.70651469610093   | 3.70651469610093   | 3.70651469610093   occ= 0
MO #24  (A1  #12) energy= 5.47367560227256   | 5.47367560227257   | 5.47367560227257   occ= 0
 ** MO coefficients (expansion on meta-Lowdin AOs) **
               #1(A1 #1) #2(A1 #2) #3(A1 #3) #4(E1x #1) #5(E1y #1)
  0 O 1s       1.00000  -0.00120  -0.00061   0.00000   0.00000
  0 O 2s       0.00130   0.80792  -0.41242   0.00000   0.00000
  0 O 3s      -0.00053  -0.02128  -0.10578  -0.00000   0.00000
  0 O 4s       0.00064  -0.01377  -0.03536   0.00000   0.00000
  0 O 2px      0.00000   0.00000   0.00000   0.98642   0.00000
  0 O 2py      0.00000   0.00000   0.00000   0.00000   0.98642
  0 O 2pz      0.00130   0.24530   0.87347   0.00000   0.00000
  0 O 3px      0.00000  -0.00000  -0.00000   0.15648  -0.00000
  0 O 3py      0.00000   0.00000   0.00000  -0.00000   0.15648
  0 O 3pz     -0.00045  -0.05155   0.00705   0.00000   0.00000
  0 O 4px     -0.00000  -0.00000  -0.00000   0.01884   0.00000
  0 O 4py      0.00000  -0.00000   0.00000  -0.00000   0.01884
  0 O 4pz      0.00034   0.00430  -0.00111   0.00000   0.00000
  0 O 3dxy    -0.00000  -0.00000  -0.00000  -0.00000  -0.00000
  0 O 3dyz     0.00000   0.00000   0.00000  -0.00000   0.03063
  0 O 3dz^2    0.00092   0.04985   0.06828  -0.00000  -0.00000
  0 O 3dxz    -0.00000  -0.00000  -0.00000   0.03063   0.00000
 0 O 3dx2-y2  -0.00000   0.00000   0.00000  -0.00000  -0.00000
  1 H 1s      -0.00036   0.52155   0.20024   0.00000   0.00000
  1 H 2s      -0.00015  -0.06468  -0.08718   0.00000  -0.00000
  1 H 3s      -0.00072   0.06979   0.04552  -0.00000   0.00000
  1 H 2px     -0.00000  -0.00000  -0.00000   0.03454  -0.00000
  1 H 2py     -0.00000   0.00000   0.00000   0.00000   0.03454
  1 H 2pz      0.00097  -0.01484   0.00574   0.00000  -0.00000
               #6(A1 #4) #7(A1 #5) #8(E1x #2) #9(E1y #2) #10(A1 #6)
  0 O 1s       0.00075  -0.00017   0.00000   0.00000   0.00026
  0 O 2s      -0.12196   0.02640   0.00000   0.00000  -0.17952
  0 O 3s      -0.10000  -0.06006  -0.00000   0.00000   0.56682
  0 O 4s       0.16740  -0.05342   0.00000   0.00000   0.60765
  0 O 2px      0.00000   0.00000  -0.13697   0.00000   0.00000
  0 O 2py      0.00000   0.00000   0.00000  -0.13697   0.00000
  0 O 2pz     -0.06350   0.03170   0.00000   0.00000  -0.05310
  0 O 3px      0.00000  -0.00000   0.80229  -0.00000   0.00000
  0 O 3py     -0.00000  -0.00000   0.00000   0.80229  -0.00000
  0 O 3pz      0.06096  -0.74681   0.00000   0.00000  -0.22534
  0 O 4px     -0.00000   0.00000   0.58015   0.00000   0.00000
  0 O 4py     -0.00000  -0.00000  -0.00000   0.58015   0.00000
  0 O 4pz      0.11247  -0.57554   0.00000   0.00000  -0.07449
  0 O 3dxy    -0.00000   0.00000   0.00000  -0.00000   0.00000
  0 O 3dyz    -0.00000  -0.00000  -0.00000  -0.01100   0.00000
  0 O 3dz^2   -0.07903   0.08530   0.00000   0.00000  -0.11594
  0 O 3dxz    -0.00000  -0.00000  -0.01100   0.00000   0.00000
 0 O 3dx2-y2  -0.00000   0.00000  -0.00000   0.00000  -0.00000
  1 H 1s       0.26432  -0.16329   0.00000   0.00000   0.35897
  1 H 2s       0.78812   0.06003   0.00000  -0.00000  -0.04153
  1 H 3s       0.47619   0.25535  -0.00000  -0.00000  -0.25980
  1 H 2px     -0.00000  -0.00000  -0.02962  -0.00000  -0.00000
  1 H 2py      0.00000   0.00000   0.00000  -0.02962  -0.00000
  1 H 2pz     -0.05197   0.01106  -0.00000   0.00000  -0.08119
               #11(A1 #7) #12(A1 #8) #13(E1x #3) #14(E1y #3) #15(A1 #9)
  0 O 1s       0.00010  -0.00061   0.00000   0.00000   0.00068
  0 O 2s      -0.21557  -0.02501   0.00000   0.00000  -0.24504
  0 O 3s      -0.51021  -0.04223  -0.00000   0.00000  -0.02840
  0 O 4s      -0.19808   0.08090   0.00000  -0.00000   0.02250
  0 O 2px      0.00000   0.00000  -0.07430   0.00000   0.00000
  0 O 2py      0.00000   0.00000   0.00000  -0.07430   0.00000
  0 O 2pz     -0.24307  -0.03859   0.00000   0.00000  -0.31165
  0 O 3px     -0.00000   0.00000   0.57504   0.00000  -0.00000
  0 O 3py     -0.00000   0.00000  -0.00000   0.57504   0.00000
  0 O 3pz     -0.23661  -0.50486   0.00000   0.00000   0.20346
  0 O 4px      0.00000  -0.00000  -0.81421   0.00000   0.00000
  0 O 4py      0.00000   0.00000  -0.00000  -0.81421  -0.00000
  0 O 4pz     -0.00644   0.76646   0.00000   0.00000  -0.17611
  0 O 3dxy    -0.00000  -0.00000  -0.00000  -0.00000   0.00000
  0 O 3dyz     0.00000   0.00000  -0.00000  -0.02073  -0.00000
  0 O 3dz^2    0.01512   0.29782  -0.00000  -0.00000   0.41134
  0 O 3dxz     0.00000  -0.00000  -0.02073   0.00000  -0.00000
 0 O 3dx2-y2  -0.00000  -0.00000   0.00000  -0.00000   0.00000
  1 H 1s       0.48440  -0.06940   0.00000   0.00000   0.39847
  1 H 2s       0.11077  -0.14844   0.00000  -0.00000  -0.42384
  1 H 3s      -0.53858   0.15980   0.00000   0.00000   0.46833
  1 H 2px      0.00000  -0.00000  -0.02079  -0.00000  -0.00000
  1 H 2py     -0.00000   0.00000   0.00000  -0.02079   0.00000
  1 H 2pz      0.04063  -0.07832   0.00000  -0.00000   0.20531
               #16(A1 #10) #17(E1x #4) #18(E1y #4) #19(E2x #1) #20(E2y #1)
  0 O 1s      -0.00105   0.00000   0.00000   0.00000   0.00000
  0 O 2s       0.11692   0.00000   0.00000   0.00000   0.00000
  0 O 3s      -0.58528   0.00000  -0.00000  -0.00000   0.00000
  0 O 4s       0.72812  -0.00000   0.00000  -0.00000   0.00000
  0 O 2px      0.00000  -0.04975   0.00000   0.00000   0.00000
  0 O 2py      0.00000   0.00000  -0.04975   0.00000   0.00000
  0 O 2pz      0.04542   0.00000   0.00000   0.00000   0.00000
  0 O 3px      0.00000   0.03012  -0.00000  -0.00000  -0.00000
  0 O 3py     -0.00000  -0.00000   0.03012   0.00000  -0.00000
  0 O 3pz      0.12287   0.00000   0.00000  -0.00000  -0.00000
  0 O 4px      0.00000  -0.00946  -0.00000  -0.00000   0.00000
  0 O 4py      0.00000  -0.00000  -0.00946   0.00000   0.00000
  0 O 4pz     -0.11079  -0.00000   0.00000  -0.00000  -0.00000
  0 O 3dxy     0.00000   0.00000   0.00000   0.00000   1.00000
  0 O 3dyz     0.00000   0.00000   0.83214  -0.00000   0.00000
  0 O 3dz^2    0.13267  -0.00000   0.00000  -0.00000  -0.00000
  0 O 3dxz    -0.00000   0.83214   0.00000  -0.00000   0.00000
 0 O 3dx2-y2  -0.00000  -0.00000  -0.00000   1.00000   0.00000
  1 H 1s      -0.21448   0.00000   0.00000   0.00000   0.00000
  1 H 2s      -0.09255   0.00000  -0.00000  -0.00000   0.00000
  1 H 3s      -0.04890  -0.00000  -0.00000   0.00000   0.00000
  1 H 2px     -0.00000   0.55142   0.00000   0.00000  -0.00000
  1 H 2py     -0.00000  -0.00000   0.55142  -0.00000  -0.00000
  1 H 2pz     -0.09811   0.00000  -0.00000   0.00000   0.00000
               #21(A1 #11) #22(E1x #5) #23(E1y #5) #24(A1 #12)
  0 O 1s       0.00011   0.00000   0.00000   0.00156
  0 O 2s      -0.02251   0.00000   0.00000  -0.08974
  0 O 3s      -0.18117  -0.00000   0.00000  -0.12323
  0 O 4s       0.10391  -0.00000  -0.00000  -0.10587
  0 O 2px      0.00000  -0.01470   0.00000   0.00000
  0 O 2py      0.00000   0.00000  -0.01470   0.00000
  0 O 2pz     -0.02089   0.00000   0.00000  -0.09389
  0 O 3px      0.00000   0.01646   0.00000  -0.00000
  0 O 3py      0.00000  -0.00000   0.01646   0.00000
  0 O 3pz     -0.13310   0.00000   0.00000  -0.00126
  0 O 4px     -0.00000   0.00579  -0.00000   0.00000
  0 O 4py     -0.00000  -0.00000   0.00579  -0.00000
  0 O 4pz      0.13818   0.00000   0.00000  -0.02553
  0 O 3dxy     0.00000  -0.00000  -0.00000   0.00000
  0 O 3dyz    -0.00000  -0.00000  -0.55321   0.00000
  0 O 3dz^2   -0.73579  -0.00000  -0.00000  -0.38571
  0 O 3dxz     0.00000  -0.55321  -0.00000  -0.00000
 0 O 3dx2-y2   0.00000   0.00000  -0.00000   0.00000
  1 H 1s       0.05022   0.00000   0.00000   0.12547
  1 H 2s      -0.24968   0.00000   0.00000  -0.27732
  1 H 3s       0.22058  -0.00000   0.00000   0.21820
  1 H 2px      0.00000   0.83273   0.00000  -0.00000
  1 H 2py      0.00000   0.00000   0.83273  -0.00000
  1 H 2pz      0.51354   0.00000   0.00000  -0.81673
 ** Mulliken pop on meta-lowdin orthogonal AOs  **
 ** Mulliken pop  **
pop of  0 O 1s        1.99999
pop of  0 O 2s        1.64566
pop of  0 O 3s        0.02329
pop of  0 O 4s        0.00288
pop of  0 O 2px       1.94606
pop of  0 O 2py       1.94606
pop of  0 O 2pz       1.64626
pop of  0 O 3px       0.04897
pop of  0 O 3py       0.04897
pop of  0 O 3pz       0.00541
pop of  0 O 4px       0.00071
pop of  0 O 4py       0.00071
pop of  0 O 4pz       0.00004
pop of  0 O 3dxy      0.00000
pop of  0 O 3dyz      0.00188
pop of  0 O 3dz^2     0.01430
pop of  0 O 3dxz      0.00188
pop of  0 O 3dx2-y2    0.00000
pop of  1 H 1s        0.62421
pop of  1 H 2s        0.02357
pop of  1 H 3s        0.01389
pop of  1 H 2px       0.00239
pop of  1 H 2py       0.00239
pop of  1 H 2pz       0.00051
 ** Mulliken atomic charges  **
charge of  0O =     -1.33305
charge of  1H =      0.33305
Dipole moment(X, Y, Z, Debye):  0.00000,  0.00000,  1.58980
Active space irreps [ 0  0  2  3  0  0  2  3  0  0  0  2  3  0  0  2  3 10 11  0  2  3  0]
Set CASCI wfnsym 0 based on HF determinant
Active space CI wfn symmetry = A1
<class 'pyscf.mcscf.casci_symm.SymAdaptedCASCI'> does not have attributes  frozen

******** CASCI flags ********
CAS (4e+4e, 23o), ncore = 1, nvir = 0
natorb = False
canonicalization = True
sorting_mo_energy = False
max_memory 16000 (MB)
******** <class 'pyscf.fci.direct_spin1_symm.FCISolver'> ********
max. cycles = 200
conv_tol = 1e-08
davidson only = True
linear dependence = 1e-10
level shift = 0.001
max iter space = 12
max_memory 16000 MB
nroots = 1
pspace_size = 0
spin = None
Input CI wfn symmetry = A1
Start CASCI
    CPU time for integral transformation to CAS space      0.00 sec, wall time      0.00 sec
core energy = -54.5651846235123
    CPU time for effective h1e in CAS space      0.00 sec, wall time      0.00 sec
Guessing CI wfn symmetry = 0
tol 1e-08  toloose 0.0001
max_cycle 200  max_space 12  max_memory 16000  incore False
davidson 0 1  |r|= 0.913  e= [-20.6927793]  max|de|= -20.7  lindep=    1
davidson 1 2  |r|= 0.327  e= [-20.88117638]  max|de|= -0.188  lindep= 0.99
davidson 2 3  |r|= 0.125  e= [-20.8988658]  max|de|= -0.0177  lindep= 0.884
davidson 3 4  |r|= 0.0521  e= [-20.9018465]  max|de|= -0.00298  lindep= 0.83
davidson 4 5  |r|= 0.0241  e= [-20.90250348]  max|de|= -0.000657  lindep= 0.892
davidson 5 6  |r|= 0.00868  e= [-20.9026108]  max|de|= -0.000107  lindep= 0.88
davidson 6 7  |r|= 0.00326  e= [-20.90262345]  max|de|= -1.26e-05  lindep= 0.92
davidson 7 8  |r|= 0.00142  e= [-20.90262544]  max|de|= -1.99e-06  lindep= 0.916
davidson 8 9  |r|= 0.000678  e= [-20.90262583]  max|de|= -3.94e-07  lindep= 0.833
davidson 9 10  |r|= 0.000342  e= [-20.90262593]  max|de|= -1.01e-07  lindep= 0.908
davidson 10 11  |r|= 0.000164  e= [-20.90262595]  max|de|= -2.28e-08  lindep= 0.809
root 0 converged  |r|= 8.15e-05  e= -20.902625958771473  max|de|= -5.39e-09
converged 11 12  |r|= 8.15e-05  e= [-20.90262596]  max|de|= -5.39e-09
    CPU time for FCI solver   1086.50 sec, wall time    978.49 sec
Density matrix diagonal elements [1.98295329e+00 1.96608197e+00 1.95376491e+00 1.95376491e+00
 7.95618303e-04 6.59203045e-03 2.40924053e-02 2.40924053e-02
 8.82929432e-03 6.09135655e-03 6.96804209e-03 1.32694442e-02
 1.32694442e-02 8.68703324e-03 6.76765848e-03 5.43973491e-03
 5.43973491e-03 4.72167481e-03 4.72166811e-03 1.35699133e-03
 6.89447406e-04 6.89447406e-04 9.21477281e-04]
i = 1  <i|F|i> = -20.19338937
i = 2  <i|F|i> =  -1.03315679
i = 3  <i|F|i> =  -0.31583966
i = 4  <i|F|i> =  -0.12088323
i = 5  <i|F|i> =  -0.12088323
i = 6  <i|F|i> =   0.22168168
i = 7  <i|F|i> =   0.45983483
i = 8  <i|F|i> =   0.49338447
i = 9  <i|F|i> =   0.49338447
i = 10  <i|F|i> =   0.54914010
i = 11  <i|F|i> =   0.75951806
i = 12  <i|F|i> =   1.62928010
i = 13  <i|F|i> =   1.73449463
i = 14  <i|F|i> =   1.73449463
i = 15  <i|F|i> =   1.90593902
i = 16  <i|F|i> =   2.12077125
i = 17  <i|F|i> =   2.28163047
i = 18  <i|F|i> =   2.28163047
i = 19  <i|F|i> =   2.44833221
i = 20  <i|F|i> =   2.44833221
i = 21  <i|F|i> =   3.54667906
i = 22  <i|F|i> =   3.67946824
i = 23  <i|F|i> =   3.67946824
i = 24  <i|F|i> =   5.44044776
CASCI converged
CASCI E = -75.4678105822838  E(CI) = -20.9026259587715  S^2 = 0.0000000
#INFO: **** input file is /Users/mario/Desktop/oh_fci_calculations/anion.py ****
import numpy as np
import pyscf
from   pyscf import gto,scf,mcscf,mp,cc,ci

def complete_es(mol,mf,EHF,nf):
    nel_frozen  = (nf,nf)
    orb_frozen  = nf     
    na,nb       = (mol.nelectron+mol.spin)//2-nf,(mol.nelectron-mol.spin)//2-nf
    nact        = mol.nao_nr()-nf
    mc          = mcscf.CASCI(mf,nact,(na,nb))
    mc.frozen   = orb_frozen
    ECASCI      = mc.kernel()[0]
    return ECASCI

def geometry(d):
    return [['O',(0,0,0)],['H',(0,0,d)]]

outf = open('anion_results.txt','w')
for R in ['0.70','0.72','0.74','0.76','0.78',
          '0.80','0.82','0.84','0.86','0.88',
          '0.90','0.92','0.94','0.96','0.98',
          '1.00','1.02','1.04','1.06','1.08',
          '1.10','1.12','1.14','1.16','1.18','1.20']:
    mol = gto.Mole()
    mol.build(atom     = geometry(float(R)),
              basis    = '6-31++g**',
              symmetry = 'coov',
              charge   = -1,
              spin     = 0,
              max_memory = 16000,
              verbose  = 6)
    mf             = scf.ROHF(mol)
    mf             = scf.newton(mf)
    EHF            = mf.kernel()
    a              = mf.stability()[0]
    EHF            = mf.kernel(a,mf.mo_occ)
    mf.analyze()
    ECASCI = complete_es(mol,mf,EHF,nf=1)
    outf.write('%.12f %.12f %.12f \n' % (float(R),EHF,ECASCI))

#INFO: ******************** input file end ********************


System: uname_result(system='Darwin', node='Marios-MacBook-Pro.local', release='20.6.0', version='Darwin Kernel Version 20.6.0: Mon Aug 30 06:12:21 PDT 2021; root:xnu-7195.141.6~3/RELEASE_X86_64', machine='x86_64')  Threads 1
Python 3.9.6 | packaged by conda-forge | (default, Jul 11 2021, 03:36:15) 
[Clang 11.1.0 ]
numpy 1.21.2  scipy 1.7.1
Date: Wed Jan 26 10:15:59 2022
PySCF version 1.7.6
PySCF path  /Users/mario/anaconda3/envs/qiskit_forging_2021_08_30/lib/python3.9/site-packages/pyscf

[CONFIG] conf_file None
[INPUT] verbose = 6
[INPUT] max_memory = 16000 
[INPUT] num. atoms = 2
[INPUT] num. electrons = 10
[INPUT] charge = -1
[INPUT] spin (= nelec alpha-beta = 2S) = 0
[INPUT] symmetry Coov subgroup None
[INPUT] Mole.unit = angstrom
[INPUT]  1 O      0.000000000000   0.000000000000   0.000000000000 AA    0.000000000000   0.000000000000   0.000000000000 Bohr
[INPUT]  2 H      0.000000000000   0.000000000000   0.720000000000 AA    0.000000000000   0.000000000000   1.360602809687 Bohr
[INPUT] ---------------- BASIS SET ---------------- 
[INPUT] l, kappa, [nprim/nctr], expnt,             c_1 c_2 ...
[INPUT] H
[INPUT] 0    0    [3    /1   ]  18.731137         0.0334946
                                2.8253937         0.23472695
                                0.6401217         0.81375733
[INPUT] 0    0    [1    /1   ]  0.1612778            1
[INPUT] 0    0    [1    /1   ]  0.036                1
[INPUT] 1    0    [1    /1   ]  1.1                  1
[INPUT] O
[INPUT] 0    0    [6    /1   ]  5484.6717         0.0018311
                                825.23495         0.0139501
                                188.04696         0.0684451
                                52.9645           0.2327143
                                16.89757          0.470193
                                5.7996353         0.3585209
[INPUT] 0    0    [3    /1   ]  15.539616         -0.1107775
                                3.5999336         -0.1480263
                                1.0137618         1.130767
[INPUT] 0    0    [1    /1   ]  0.2700058            1
[INPUT] 0    0    [1    /1   ]  0.0845               1
[INPUT] 1    0    [3    /1   ]  15.539616         0.0708743
                                3.5999336         0.3397528
                                1.0137618         0.7271586
[INPUT] 1    0    [1    /1   ]  0.2700058            1
[INPUT] 1    0    [1    /1   ]  0.0845               1
[INPUT] 2    0    [1    /1   ]  0.8                  1

nuclear repulsion = 5.879746788
point group symmetry = Coov
num. orbitals of irrep A1 = 12
num. orbitals of irrep E1x = 5
num. orbitals of irrep E1y = 5
num. orbitals of irrep E2x = 1
num. orbitals of irrep E2y = 1
number of shells = 12
number of NR pGTOs = 39
number of NR cGTOs = 24
basis = 6-31++g**
ecp = {}
CPU time:      1113.73
Freeze 0 electrons in irreps []
    10 free electrons in irreps A1 E1x E1y E2x E2y




******** <class 'pyscf.scf.hf_symm.SymAdaptedROHF'> ********
method = SymAdaptedROHF-ROHF-RHF
initial guess = minao
damping factor = 0
level_shift factor = 0
DIIS = <class 'pyscf.scf.diis.CDIIS'>
diis_start_cycle = 1
diis_space = 8
SCF conv_tol = 1e-09
SCF conv_tol_grad = None
SCF max_cycles = 50
direct_scf = True
direct_scf_tol = 1e-13
chkfile to save SCF result = /var/folders/7m/f464jvrs78n7m3djcnsxfxgr0000gn/T/tmpx5r_4odn
max_memory 16000 MB (current use 0 MB)
num. doubly occ = 5  num. singly occ = 0
******** <class 'pyscf.scf.hf_symm.SymAdaptedROHF'> Newton solver flags ********
SCF tol = 1e-09
conv_tol_grad = None
max. SCF cycles = 50
direct_scf = True
direct_scf_tol = 1e-13
chkfile to save SCF result = /var/folders/7m/f464jvrs78n7m3djcnsxfxgr0000gn/T/tmpx5r_4odn
max_cycle_inner = 12
max_stepsize = 0.05
ah_start_tol = 1e+09
ah_level_shift = 0
ah_conv_tol = 1e-12
ah_lindep = 1e-14
ah_start_cycle = 1
ah_max_cycle = 40
ah_grad_trust_region = 2.5
kf_interval = 4
kf_trust_region = 5
canonicalization = True
max_memory 16000 MB (current use 0 MB)
Set conv_tol_grad to 3.16228e-05
Initial guess density matrix is not given. Generating initial guess from minao
Nelec from initial guess = (4.498777041862018, 4.498777041862018)
HOMO (E1x) = -0.480689265051567  LUMO (A1) = 0.0453495056400066
double occ irrep_nelec = [3, 1, 1, 0, 0]
single occ irrep_nelec = [0, 0, 0, 0, 0]
  Roothaan mo_energy =
[-20.811777    -1.65087233  -0.68618055   0.04534951   0.21217589
   0.27327281   0.44694076   1.23381818   1.4357169    1.67601796
   3.06870686   4.7933049   -0.48068927   0.22923816   1.29809078
   1.81279279   3.2201663   -0.48068927   0.22923816   1.29809078
   1.81279279   3.2201663    1.97314722   1.97314722]
  alpha mo_energy =
[-20.811777    -1.65087233  -0.68618055   0.04534951   0.21217589
   0.27327281   0.44694076   1.23381818   1.4357169    1.67601796
   3.06870686   4.7933049   -0.48068927   0.22923816   1.29809078
   1.81279279   3.2201663   -0.48068927   0.22923816   1.29809078
   1.81279279   3.2201663    1.97314722   1.97314722]
  beta  mo_energy =
[-20.811777    -1.65087233  -0.68618055   0.04534951   0.21217589
   0.27327281   0.44694076   1.23381818   1.4357169    1.67601796
   3.06870686   4.7933049   -0.48068927   0.22923816   1.29809078
   1.81279279   3.2201663   -0.48068927   0.22923816   1.29809078
   1.81279279   3.2201663    1.97314722   1.97314722]
E1 = -121.75810762005511  Ecoul = 40.722717738127855
Initial guess E= -75.1556430939273  |g|= 0.761327
    CPU time for initializing second order scf      0.04 sec, wall time      0.04 sec
    |g|= 0.761 (keyframe)
CIAH eigen-sel 0
... AH step 1  index= 0  |dx|= 0.50445  eig= -0.089994  v[0]= -0.99309  lindep= 0.57962
    imic 1(1)  |g|= 0.508  |dxi|= 0.118  max(|x|)= 0.05  |dr|= 0.118  eig= -0.09  seig= 0.58
Set ah_start_tol 3.80663, ah_start_cycle 1, max_cycle 12
CIAH eigen-sel 0
... AH step 2  index= 0  |dx|= 0.25466  eig= -0.054897  v[0]= 0.97399  lindep= 0.027201
... scale rotation size 0.33288
    imic 2(2)  |g|= 0.271  |dxi|= 0.0774  max(|x|)= 0.15  |dr|= 0.16  eig= -0.0549  seig= 0.0272
Set ah_start_tol 2.54039, ah_start_cycle 1, max_cycle 12
CIAH eigen-sel 0
... AH step 3  index= 0  |dx|= 0.041689  eig= -0.034573  v[0]= 0.97116  lindep= 0.0010112
... scale rotation size 0.309273
    imic 3(3)  |g|= 0.194  |dxi|= 0.0759  max(|x|)= 0.162  |dr|= 0.218  eig= -0.0346  seig= 0.00101
Set ah_start_tol 1.3567, ah_start_cycle 1, max_cycle 12
CIAH eigen-sel 0
... AH step 4  index= 0  |dx|= 0.01899  eig= -0.018591  v[0]= 0.98162  lindep= 0.00015728
... scale rotation size 0.386141
    imic 4(4)  |g|= 0.122  |dxi|= 0.0751  max(|x|)= 0.129  |dr|= 0.282  eig= -0.0186  seig= 0.000157
Set ah_start_tol 0.969136, ah_start_cycle 1, max_cycle 12
E1 = -118.47191554272547  Ecoul = 37.31461095546128
Adjust keyframe g_orb to |g|= 0.158  |g-correction|=0.159  E=-75.2775577993 dE=-0.12191
Set kf_trust_region = 5
CIAH eigen-sel 0
... AH step 5  index= 0  |dx|= 0.061211  eig= -0.014647  v[0]= 0.98414  lindep= 2.5397e-05
... scale rotation size 0.419072
    imic 5(5)  |g|= 0.109  |dxi|= 0.0755  max(|x|)= 0.119  |dr|= 0.0755  eig= -0.0146  seig= 2.54e-05
Set ah_start_tol 0.788444, ah_start_cycle 1, max_cycle 15
CIAH eigen-sel 0
... AH step 6  index= 0  |dx|= 0.015398  eig= -0.0059308  v[0]= 0.99362  lindep= 2.4643e-05
... scale rotation size 0.676996
    imic 6(6)  |g|= 0.031  |dxi|= 0.0768  max(|x|)= 0.0739  |dr|= 0.152  eig= -0.00593  seig= 2.46e-05
Set ah_start_tol 0.543101, ah_start_cycle 1, max_cycle 15
CIAH eigen-sel 0
... AH step 7  index= 0  |dx|= 0.0053001  eig= -0.00070756  v[0]= 0.99917  lindep= 8.3068e-06
    imic 7(7)  |g|= 0.0053  |dxi|= 0.0408  max(|x|)= 0.0244  |dr|= 0.191  eig= -0.000708  seig= 8.31e-06
Set ah_start_tol 0.155181, ah_start_cycle 1, max_cycle 15
irreps of each MO [ 0  0  0  0  2  3  0  2  3  0  2  3  0 11  3  0  2 10  0  0  0  2  3  0]
E1 = -119.6700913766838  Ecoul = 38.52187958028462
Adjust keyframe g_orb to |g|= 0.129  |g-correction|=0.129  E=-75.2684650084 dE=0.0090928
Out of trust region. Restore previouse step
    tot inner=7  10 JK  |g|= 0.031  |u-1|= 0.0408
    CPU time for aug_hess in 7 inner iters      0.02 sec, wall time      0.02 sec
Overlap to initial guess, SVD = [0.99941963 0.99579004 0.9955242  0.9955242 ]
Overlap to last step, SVD = [0.99941963 0.99579004 0.9955242  0.9955242 ]
HOMO (E1x) = -0.0721728994467792  LUMO (A1) = 0.225453605269755
double occ irrep_nelec = [3, 1, 1, 0, 0]
single occ irrep_nelec = [0, 0, 0, 0, 0]
  Roothaan mo_energy =
[-20.07409914  -0.95191272  -0.24723349   0.22545361   0.47383653
   0.57045823   0.77540177   1.689935     1.93546117   2.17867401
   3.58124325   5.34942484  -0.0721729    0.50845133   1.80104506
   2.34082669   3.70825674  -0.0721729    0.50845133   1.80104506
   2.34082669   3.70825674   2.5192907    2.5192907 ]
  alpha mo_energy =
[-20.07409914  -0.95191272  -0.24723349   0.22545361   0.47383653
   0.57045823   0.77540177   1.689935     1.93546117   2.17867401
   3.58124325   5.34942484  -0.0721729    0.50845133   1.80104506
   2.34082669   3.70825674  -0.0721729    0.50845133   1.80104506
   2.34082669   3.70825674   2.5192907    2.5192907 ]
  beta  mo_energy =
[-20.07409914  -0.95191272  -0.24723349   0.22545361   0.47383653
   0.57045823   0.77540177   1.689935     1.93546117   2.17867401
   3.58124325   5.34942484  -0.0721729    0.50845133   1.80104506
   2.34082669   3.70825674  -0.0721729    0.50845133   1.80104506
   2.34082669   3.70825674   2.5192907    2.5192907 ]
E1 = -119.48341650808362  Ecoul = 38.3273971780377
macro= 0  E= -75.2762725420459  delta_E= -0.120629  |g|= 0.157689  3 KF 10 JK
    CPU time for cycle= 1      0.02 sec, wall time      0.02 sec
    |g|= 0.0915 (keyframe), |g-correction|= 0.111
Set  kf_trust_region = 5
CIAH eigen-sel 0
... AH step 1  index= 0  |dx|= 0.06434  eig= -0.006838  v[0]= -0.9962  lindep= 0.0016638
... scale rotation size 0.955382
    imic 1(1)  |g|= 0.0627  |dxi|= 0.0835  max(|x|)= 0.0523  |dr|= 0.0835  eig= -0.00684  seig= 0.00166
Set ah_start_tol 0.457524, ah_start_cycle 1, max_cycle 16
CIAH eigen-sel 0
... AH step 2  index= 0  |dx|= 0.01935  eig= -0.00086915  v[0]= 0.99969  lindep= 0.00025168
    imic 2(2)  |g|= 0.0194  |dxi|= 0.025  max(|x|)= 0.0138  |dr|= 0.0962  eig= -0.000869  seig= 0.000252
Set ah_start_tol 0.313306, ah_start_cycle 1, max_cycle 16
CIAH eigen-sel 0
... AH step 3  index= 0  |dx|= 0.0018186  eig= -3.3435e-05  v[0]= 0.99999  lindep= 4.1901e-06
    imic 3(3)  |g|= 0.00182  |dxi|= 0.00428  max(|x|)= 0.00356  |dr|= 0.0971  eig= -3.34e-05  seig= 4.19e-06
Set ah_start_tol 0.0967826, ah_start_cycle 1, max_cycle 16
E1 = -118.95561457427463  Ecoul = 37.792434621475195
Adjust keyframe g_orb to |g|= 0.0137  |g-correction|=0.0131  E=-75.2834331648 dE=-0.0071606
Out of trust region. Restore previouse step
irreps of each MO [ 0  0  0  0  2  3  0  2  3  0  2  3  0 11  3  0  2 10  0  0  0  2  3  0]
    tot inner=3  5 JK  |g|= 0.0194  |u-1|= 0.00428
    CPU time for aug_hess in 3 inner iters      0.01 sec, wall time      0.01 sec
Overlap to initial guess, SVD = [0.99955112 0.99561676 0.98902831 0.98902831]
Overlap to last step, SVD = [0.99998546 0.99915889 0.99811346 0.99811346]
HOMO (E1y) = -0.109284198470097  LUMO (A1) = 0.222964119896172
double occ irrep_nelec = [3, 1, 1, 0, 0]
single occ irrep_nelec = [0, 0, 0, 0, 0]
  Roothaan mo_energy =
[-20.16358766  -1.00375626  -0.29781483   0.22296412   0.46636928
   0.55802176   0.75911236   1.65661724   1.89463816   2.13941651
   3.53978051   5.29788016  -0.1092842    0.50167234   1.76201238
   2.29720941   3.66931487  -0.1092842    0.50167234   1.76201238
   2.29720941   3.66931487   2.47427897   2.47427897]
  alpha mo_energy =
[-20.16358766  -1.00375626  -0.29781483   0.22296412   0.46636928
   0.55802176   0.75911236   1.65661724   1.89463816   2.13941651
   3.53978051   5.29788016  -0.1092842    0.50167234   1.76201238
   2.29720941   3.66931487  -0.1092842    0.50167234   1.76201238
   2.29720941   3.66931487   2.47427897   2.47427897]
  beta  mo_energy =
[-20.16358766  -1.00375626  -0.29781483   0.22296412   0.46636928
   0.55802176   0.75911236   1.65661724   1.89463816   2.13941651
   3.53978051   5.29788016  -0.1092842    0.50167234   1.76201238
   2.29720941   3.66931487  -0.1092842    0.50167234   1.76201238
   2.29720941   3.66931487   2.47427897   2.47427897]
E1 = -118.95898350234813  Ecoul = 37.79583089459219
macro= 1  E= -75.2834058197559  delta_E= -0.00713328  |g|= 0.0915048  2 KF 5 JK
    CPU time for cycle= 2      0.01 sec, wall time      0.01 sec
    |g|= 0.0222 (keyframe), |g-correction|= 0.013
Set  kf_trust_region = 5
CIAH eigen-sel 0
... AH step 1  index= 0  |dx|= 0.01338  eig= -2.7749e-05  v[0]= -0.99999  lindep= 1.829e-05
    imic 1(1)  |g|= 0.0134  |dxi|= 0.00382  max(|x|)= 0.00318  |dr|= 0.00382  eig= -2.77e-05  seig= 1.83e-05
Set ah_start_tol 0.110845, ah_start_cycle 1, max_cycle 19
CIAH eigen-sel 0
... AH step 2  index= 0  |dx|= 0.0069786  eig= -7.5252e-05  v[0]= 0.99998  lindep= 1.8289e-05
    imic 2(2)  |g|= 0.00698  |dxi|= 0.00605  max(|x|)= 0.00376  |dr|= 0.00722  eig= -7.53e-05  seig= 1.83e-05
Set ah_start_tol 0.0669015, ah_start_cycle 1, max_cycle 19
CIAH eigen-sel 0
... AH step 3  index= 0  |dx|= 0.0010915  eig= -1.8644e-05  v[0]= 0.99999  lindep= 6.1788e-06
    imic 3(3)  |g|= 0.00109  |dxi|= 0.00396  max(|x|)= 0.00255  |dr|= 0.00953  eig= -1.86e-05  seig= 6.18e-06
Set ah_start_tol 0.0348938, ah_start_cycle 1, max_cycle 19
E1 = -119.02155428405956  Ecoul = 37.85827924869999
Adjust keyframe g_orb to |g|= 0.0011  |g-correction|=0.000146  E=-75.2835282474 dE=-0.00012243
Set kf_trust_region = 7.48226
CIAH eigen-sel 0
... AH step 4  index= 0  |dx|= 0.00027876  eig= -2.2242e-07  v[0]= 1  lindep= 5.674e-08
    imic 4(4)  |g|= 0.000279  |dxi|= 0.000418  max(|x|)= 0.000295  |dr|= 0.000418  eig= -2.22e-07  seig= 5.67e-08
Set ah_start_tol 0.00551557, ah_start_cycle 1, max_cycle 25
CIAH eigen-sel 0
... AH step 5  index= 0  |dx|= 2.5046e-05  eig= -5.2555e-09  v[0]= 1  lindep= 6.9449e-10
    imic 5(5)  |g|= 2.5e-05  |dxi|= 5e-05  max(|x|)= 3.07e-05  |dr|= 0.000446  eig= -5.26e-09  seig= 6.94e-10
Set ah_start_tol 0.00139378, ah_start_cycle 1, max_cycle 25
CIAH eigen-sel 0
... AH step 6  index= 0  |dx|= 4.8087e-06  eig= -1.1677e-10  v[0]= 1  lindep= 2.4165e-11
    imic 6(6)  |g|= 4.81e-06  |dxi|= 6.49e-06  max(|x|)= 3.05e-06  |dr|= 0.000447  eig= -1.17e-10  seig= 2.42e-11
Set ah_start_tol 0.000125229, ah_start_cycle 1, max_cycle 25
irreps of each MO [ 0  0  0  0  2  3  0  2  3  0  2  3  0 11  3  0  2 10  0  0  0  2  3  0]
    tot inner=6  8 JK  |g|= 4.81e-06  |u-1|= 0.000447
    CPU time for aug_hess in 6 inner iters      0.02 sec, wall time      0.02 sec
Overlap to initial guess, SVD = [0.99953761 0.99595379 0.98965736 0.98965736]
Overlap to last step, SVD = [0.99998842 0.99998842 0.99997661]
HOMO (E1y) = -0.104555857443384  LUMO (A1) = 0.223256226840677
double occ irrep_nelec = [3, 1, 1, 0, 0]
single occ irrep_nelec = [0, 0, 0, 0, 0]
  Roothaan mo_energy =
[-20.15304999  -0.99757659  -0.2925227    0.22325623   0.46706873
   0.55941741   0.76105103   1.66039969   1.89956598   2.14401192
   3.54483177   5.30425957  -0.10455586   0.50270122   1.76672359
   2.30250175   3.67407686  -0.10455586   0.50270122   1.76672359
   2.30250175   3.67407686   2.47955231   2.47955231]
  alpha mo_energy =
[-20.15304999  -0.99757659  -0.2925227    0.22325623   0.46706873
   0.55941741   0.76105103   1.66039969   1.89956598   2.14401192
   3.54483177   5.30425957  -0.10455586   0.50270122   1.76672359
   2.30250175   3.67407686  -0.10455586   0.50270122   1.76672359
   2.30250175   3.67407686   2.47955231   2.47955231]
  beta  mo_energy =
[-20.15304999  -0.99757659  -0.2925227    0.22325623   0.46706873
   0.55941741   0.76105103   1.66039969   1.89956598   2.14401192
   3.54483177   5.30425957  -0.10455586   0.50270122   1.76672359
   2.30250175   3.67407686  -0.10455586   0.50270122   1.76672359
   2.30250175   3.67407686   2.47955231   2.47955231]
E1 = -119.0220285362704  Ecoul = 37.85875327102114
macro= 2  E= -75.2835284772492  delta_E= -0.000122657  |g|= 0.00110311  2 KF 8 JK
    CPU time for cycle= 3      0.02 sec, wall time      0.02 sec
    |g|= 7.59e-06 (keyframe), |g-correction|= 6.02e-06
Set  kf_trust_region = 5
CIAH eigen-sel 0
... AH step 1  index= 0  |dx|= 8.0584e-06  eig= -9.0217e-13  v[0]= -1  lindep= 4.209e-11
    imic 1(1)  |g|= 8.06e-06  |dxi|= 5.71e-07  max(|x|)= 2.68e-07  |dr|= 5.71e-07  eig= -9.02e-13  seig= 4.21e-11
Set ah_start_tol 3.79397e-05, ah_start_cycle 1, max_cycle 35
    tot inner=1  2 JK  |g|= 8.06e-06  |u-1|= 5.71e-07
    CPU time for aug_hess in 1 inner iters      0.01 sec, wall time      0.01 sec
Overlap to initial guess, SVD = [0.99953761 0.9959538  0.98965734 0.98965734]
Overlap to last step, SVD = []
HOMO (E1y) = -0.104555869433509  LUMO (A1) = 0.22325620815779
double occ irrep_nelec = [3, 1, 1, 0, 0]
single occ irrep_nelec = [0, 0, 0, 0, 0]
  Roothaan mo_energy =
[-20.15305005  -0.99757677  -0.29252272   0.22325621   0.46706874
   0.55941741   0.76105094   1.66039966   1.8995658    2.14401191
   3.54483168   5.30425933  -0.10455587   0.50270122   1.76672358
   2.30250164   3.6740767   -0.10455587   0.50270122   1.76672358
   2.30250164   3.6740767    2.47955229   2.47955229]
  alpha mo_energy =
[-20.15305005  -0.99757677  -0.29252272   0.22325621   0.46706874
   0.55941741   0.76105094   1.66039966   1.8995658    2.14401191
   3.54483168   5.30425933  -0.10455587   0.50270122   1.76672358
   2.30250164   3.6740767   -0.10455587   0.50270122   1.76672358
   2.30250164   3.6740767    2.47955229   2.47955229]
  beta  mo_energy =
[-20.15305005  -0.99757677  -0.29252272   0.22325621   0.46706874
   0.55941741   0.76105094   1.66039966   1.8995658    2.14401191
   3.54483168   5.30425933  -0.10455587   0.50270122   1.76672358
   2.30250164   3.6740767   -0.10455587   0.50270122   1.76672358
   2.30250164   3.6740767    2.47955229   2.47955229]
E1 = -119.0220279855673  Ecoul = 37.858752720317106
macro= 3  E= -75.2835284772502  delta_E= -9.52127e-13  |g|= 7.58795e-06  1 KF 2 JK
    CPU time for cycle= 4      0.01 sec, wall time      0.01 sec
Canonicalize SCF orbitals
macro X = 4  E=-75.2835284772502  |g|= 7.58795e-06  total 9 KF 30 JK
    CPU time for Second order SCF      0.10 sec, wall time      0.10 sec
converged SCF energy = -75.2835284772502
tol 0.0001  toloose 0.01
max_cycle 50  max_space 12  max_memory 2000  incore True
davidson 0 1  |r|= 3.97  e= [3.10324828]  max|de|=  3.1  lindep= 0.897
davidson 1 2  |r|= 0.986  e= [2.05636593]  max|de|= -1.05  lindep= 0.77
davidson 2 3  |r|= 0.933  e= [1.56661642]  max|de|= -0.49  lindep= 0.941
davidson 3 4  |r|= 0.341  e= [1.38947352]  max|de|= -0.177  lindep= 0.808
davidson 4 5  |r|= 0.124  e= [1.35324162]  max|de|= -0.0362  lindep= 0.927
davidson 5 6  |r|= 0.0768  e= [1.34987077]  max|de|= -0.00337  lindep= 0.718
davidson 6 7  |r|= 0.0256  e= [1.34935679]  max|de|= -0.000514  lindep= 0.744
root 0 converged  |r|= 0.00386  e= 1.3493128092264384  max|de|= -4.4e-05
converged 7 8  |r|= 0.00386  e= [1.34931281]  max|de|= -4.4e-05
ROHF wavefunction is stable in the internal stability analysis
Freeze 0 electrons in irreps []
    10 free electrons in irreps A1 E1x E1y E2x E2y




******** <class 'pyscf.scf.hf_symm.SymAdaptedROHF'> ********
method = SymAdaptedROHF-ROHF-RHF
initial guess = minao
damping factor = 0
level_shift factor = 0
DIIS = <class 'pyscf.scf.diis.CDIIS'>
diis_start_cycle = 1
diis_space = 8
SCF conv_tol = 1e-09
SCF conv_tol_grad = None
SCF max_cycles = 50
direct_scf = True
direct_scf_tol = 1e-13
chkfile to save SCF result = /var/folders/7m/f464jvrs78n7m3djcnsxfxgr0000gn/T/tmpx5r_4odn
max_memory 16000 MB (current use 0 MB)
num. doubly occ = 5  num. singly occ = 0
******** <class 'pyscf.scf.hf_symm.SymAdaptedROHF'> Newton solver flags ********
SCF tol = 1e-09
conv_tol_grad = None
max. SCF cycles = 50
direct_scf = True
direct_scf_tol = 1e-13
chkfile to save SCF result = /var/folders/7m/f464jvrs78n7m3djcnsxfxgr0000gn/T/tmpx5r_4odn
max_cycle_inner = 12
max_stepsize = 0.05
ah_start_tol = 1e+09
ah_level_shift = 0
ah_conv_tol = 1e-12
ah_lindep = 1e-14
ah_start_cycle = 1
ah_max_cycle = 40
ah_grad_trust_region = 2.5
kf_interval = 4
kf_trust_region = 5
canonicalization = True
max_memory 16000 MB (current use 0 MB)
Set conv_tol_grad to 3.16228e-05
HOMO (E1y) = -0.104555869433509  LUMO (A1) = 0.223256208157788
double occ irrep_nelec = [3, 1, 1, 0, 0]
single occ irrep_nelec = [0, 0, 0, 0, 0]
  Roothaan mo_energy =
[-20.15305005  -0.99757677  -0.29252272   0.22325621   0.46706874
   0.55941741   0.76105094   1.66039966   1.8995658    2.14401191
   3.54483168   5.30425933  -0.10455587   0.50270122   1.76672358
   2.30250164   3.6740767   -0.10455587   0.50270122   1.76672358
   2.30250164   3.6740767    2.47955229   2.47955229]
  alpha mo_energy =
[-20.15305005  -0.99757677  -0.29252272   0.22325621   0.46706874
   0.55941741   0.76105094   1.66039966   1.8995658    2.14401191
   3.54483168   5.30425933  -0.10455587   0.50270122   1.76672358
   2.30250164   3.6740767   -0.10455587   0.50270122   1.76672358
   2.30250164   3.6740767    2.47955229   2.47955229]
  beta  mo_energy =
[-20.15305005  -0.99757677  -0.29252272   0.22325621   0.46706874
   0.55941741   0.76105094   1.66039966   1.8995658    2.14401191
   3.54483168   5.30425933  -0.10455587   0.50270122   1.76672358
   2.30250164   3.6740767   -0.10455587   0.50270122   1.76672358
   2.30250164   3.6740767    2.47955229   2.47955229]
E1 = -119.02202798556733  Ecoul = 37.85875272031711
Initial guess E= -75.2835284772502  |g|= 8.05844e-06
    CPU time for initializing second order scf      0.01 sec, wall time      0.01 sec
    |g|= 8.06e-06 (keyframe)
CIAH eigen-sel 0
... AH step 1  index= 0  |dx|= 9.2159e-06  eig= -3.719e-12  v[0]= -1  lindep= 6.4938e-11
    imic 1(1)  |g|= 9.22e-06  |dxi|= 4.62e-07  max(|x|)= 2.42e-07  |dr|= 4.62e-07  eig= -3.72e-12  seig= 6.49e-11
Set ah_start_tol 4.02922e-05, ah_start_cycle 1, max_cycle 35
    tot inner=1  2 JK  |g|= 9.22e-06  |u-1|= 4.62e-07
    CPU time for aug_hess in 1 inner iters      0.00 sec, wall time      0.00 sec
Overlap to initial guess, SVD = []
Overlap to last step, SVD = []
HOMO (E1y) = -0.104555639402774  LUMO (A1) = 0.223256216420585
double occ irrep_nelec = [3, 1, 1, 0, 0]
single occ irrep_nelec = [0, 0, 0, 0, 0]
  Roothaan mo_energy =
[-20.15304939  -0.99757644  -0.29252249   0.22325622   0.46706875
   0.55941745   0.76105101   1.6603998    1.89956601   2.1440121
   3.54483186   5.30425966  -0.10455564   0.50270126   1.76672379
   2.30250187   3.67407686  -0.10455564   0.50270126   1.76672379
   2.30250186   3.67407686   2.47955252   2.47955252]
  alpha mo_energy =
[-20.15304939  -0.99757644  -0.29252249   0.22325622   0.46706875
   0.55941745   0.76105101   1.6603998    1.89956601   2.1440121
   3.54483186   5.30425966  -0.10455564   0.50270126   1.76672379
   2.30250187   3.67407686  -0.10455564   0.50270126   1.76672379
   2.30250186   3.67407686   2.47955252   2.47955252]
  beta  mo_energy =
[-20.15304939  -0.99757644  -0.29252249   0.22325622   0.46706875
   0.55941745   0.76105101   1.6603998    1.89956601   2.1440121
   3.54483186   5.30425966  -0.10455564   0.50270126   1.76672379
   2.30250187   3.67407686  -0.10455564   0.50270126   1.76672379
   2.30250186   3.67407686   2.47955252   2.47955252]
E1 = -119.02203132975608  Ecoul = 37.858756064502344
macro= 0  E= -75.2835284772537  delta_E= -3.51008e-12  |g|= 8.05844e-06  1 KF 2 JK
    CPU time for cycle= 1      0.01 sec, wall time      0.01 sec
Canonicalize SCF orbitals
macro X = 1  E=-75.2835284772537  |g|= 8.05844e-06  total 2 KF 4 JK
    CPU time for Second order SCF      0.02 sec, wall time      0.02 sec
converged SCF energy = -75.2835284772537
**** SCF Summaries ****
Total Energy =                         -75.283528477253725
Nuclear Repulsion Energy =               5.879746788000000
One-electron Energy =                 -119.022031329756075
Two-electron Energy =                   37.858756064502344
Wave-function symmetry = Coov
occupancy for each irrep:     A1  E1x  E1y  E2x  E2y
double occ                     3    1    1    0    0
single occ                     0    0    0    0    0
**** MO energy ****
                          Roothaan           | alpha              | beta
MO #1   (A1  #1 ) energy= -20.1530493900647  | -20.1530493900647  | -20.1530493900647  occ= 2
MO #2   (A1  #2 ) energy= -0.99757643970229  | -0.997576439702291 | -0.997576439702291 occ= 2
MO #3   (A1  #3 ) energy= -0.292522490944237 | -0.292522490944237 | -0.292522490944237 occ= 2
MO #4   (E1x #1 ) energy= -0.104555640263015 | -0.104555640263015 | -0.104555640263015 occ= 2
MO #5   (E1y #1 ) energy= -0.104555639401518 | -0.104555639401518 | -0.104555639401518 occ= 2
MO #6   (A1  #4 ) energy= 0.223256216412531  | 0.223256216412532  | 0.223256216412532  occ= 0
MO #7   (A1  #5 ) energy= 0.467068753748814  | 0.467068753748815  | 0.467068753748815  occ= 0
MO #8   (E1x #2 ) energy= 0.50270125922708   | 0.50270125922708   | 0.50270125922708   occ= 0
MO #9   (E1y #2 ) energy= 0.502701258894443  | 0.502701258894444  | 0.502701258894444  occ= 0
MO #10  (A1  #6 ) energy= 0.559417447453882  | 0.559417447453883  | 0.559417447453883  occ= 0
MO #11  (A1  #7 ) energy= 0.761051007172472  | 0.76105100717247   | 0.76105100717247   occ= 0
MO #12  (A1  #8 ) energy= 1.66039980255467   | 1.66039980255467   | 1.66039980255467   occ= 0
MO #13  (E1x #3 ) energy= 1.76672378683673   | 1.76672378683673   | 1.76672378683673   occ= 0
MO #14  (E1y #3 ) energy= 1.76672378847531   | 1.76672378847531   | 1.76672378847531   occ= 0
MO #15  (A1  #9 ) energy= 1.89956601036785   | 1.89956601036785   | 1.89956601036785   occ= 0
MO #16  (A1  #10) energy= 2.144012095646     | 2.144012095646     | 2.144012095646     occ= 0
MO #17  (E1y #4 ) energy= 2.30250185595094   | 2.30250185595094   | 2.30250185595094   occ= 0
MO #18  (E1x #4 ) energy= 2.30250186826799   | 2.30250186826799   | 2.30250186826799   occ= 0
MO #19  (E2x #1 ) energy= 2.47955251521197   | 2.47955251521197   | 2.47955251521197   occ= 0
MO #20  (E2y #1 ) energy= 2.47955251521197   | 2.47955251521197   | 2.47955251521197   occ= 0
MO #21  (A1  #11) energy= 3.54483186481221   | 3.54483186481222   | 3.54483186481222   occ= 0
MO #22  (E1y #5 ) energy= 3.67407686380181   | 3.67407686380181   | 3.67407686380181   occ= 0
MO #23  (E1x #5 ) energy= 3.67407686497996   | 3.67407686497996   | 3.67407686497996   occ= 0
MO #24  (A1  #12) energy= 5.30425965514539   | 5.3042596551454    | 5.3042596551454    occ= 0
 ** MO coefficients (expansion on meta-Lowdin AOs) **
               #1(A1 #1) #2(A1 #2) #3(A1 #3) #4(E1x #1) #5(E1y #1)
  0 O 1s       1.00000  -0.00112  -0.00058   0.00000   0.00000
  0 O 2s       0.00123   0.81458  -0.40751   0.00000   0.00000
  0 O 3s      -0.00052  -0.01921  -0.10550  -0.00000  -0.00000
  0 O 4s       0.00062  -0.01435  -0.03556  -0.00000  -0.00000
  0 O 2px      0.00000   0.00000   0.00000   0.98630   0.00000
  0 O 2py      0.00000   0.00000   0.00000   0.00000   0.98630
  0 O 2pz      0.00124   0.23492   0.87145   0.00000   0.00000
  0 O 3px      0.00000  -0.00000   0.00000   0.15726   0.00000
  0 O 3py     -0.00000  -0.00000  -0.00000   0.00000   0.15726
  0 O 3pz     -0.00042  -0.04876   0.00881  -0.00000  -0.00000
  0 O 4px      0.00000   0.00000   0.00000   0.01889  -0.00000
  0 O 4py      0.00000   0.00000   0.00000  -0.00000   0.01889
  0 O 4pz      0.00033   0.00246  -0.00170  -0.00000   0.00000
  0 O 3dxy     0.00000   0.00000   0.00000   0.00000   0.00000
  0 O 3dyz    -0.00000   0.00000   0.00000  -0.00000   0.03010
  0 O 3dz^2    0.00088   0.04717   0.06627   0.00000  -0.00000
  0 O 3dxz     0.00000  -0.00000  -0.00000   0.03010   0.00000
 0 O 3dx2-y2  -0.00000   0.00000  -0.00000   0.00000   0.00000
  1 H 1s      -0.00036   0.51710   0.22005   0.00000   0.00000
  1 H 2s      -0.00019  -0.06241  -0.08540   0.00000   0.00000
  1 H 3s      -0.00069   0.06734   0.04376  -0.00000   0.00000
  1 H 2px      0.00000   0.00000   0.00000   0.03494  -0.00000
  1 H 2py     -0.00000  -0.00000  -0.00000  -0.00000   0.03494
  1 H 2pz      0.00102  -0.01612   0.00421  -0.00000  -0.00000
               #6(A1 #4) #7(A1 #5) #8(E1x #2) #9(E1y #2) #10(A1 #6)
  0 O 1s       0.00075   0.00015   0.00000   0.00000  -0.00026
  0 O 2s      -0.11829  -0.02241   0.00000   0.00000   0.17611
  0 O 3s      -0.09994   0.04979  -0.00000  -0.00000  -0.57156
  0 O 4s       0.16892   0.03901   0.00000  -0.00000  -0.60725
  0 O 2px      0.00000   0.00000  -0.13775   0.00000   0.00000
  0 O 2py      0.00000   0.00000   0.00000  -0.13775   0.00000
  0 O 2pz     -0.06720  -0.03529   0.00000   0.00000   0.05894
  0 O 3px      0.00000  -0.00000   0.80223   0.00000  -0.00000
  0 O 3py     -0.00000   0.00000   0.00000   0.80223   0.00000
  0 O 3pz      0.05942   0.75066  -0.00000  -0.00000   0.20910
  0 O 4px      0.00000  -0.00000   0.58021  -0.00000  -0.00000
  0 O 4py     -0.00000  -0.00000  -0.00000   0.58021  -0.00000
  0 O 4pz      0.11520   0.57680  -0.00000   0.00000   0.06431
  0 O 3dxy     0.00000   0.00000   0.00000   0.00000   0.00000
  0 O 3dyz     0.00000  -0.00000  -0.00000  -0.01106   0.00000
  0 O 3dz^2   -0.07801  -0.08290  -0.00000  -0.00000   0.11458
  0 O 3dxz     0.00000  -0.00000  -0.01106   0.00000  -0.00000
 0 O 3dx2-y2   0.00000  -0.00000   0.00000   0.00000   0.00000
  1 H 1s       0.26246   0.15540   0.00000   0.00000  -0.36089
  1 H 2s       0.79103  -0.05846   0.00000  -0.00000   0.04000
  1 H 3s       0.47228  -0.25213  -0.00000  -0.00000   0.26719
  1 H 2px      0.00000   0.00000  -0.02632  -0.00000  -0.00000
  1 H 2py      0.00000  -0.00000  -0.00000  -0.02632  -0.00000
  1 H 2pz     -0.04913  -0.00775  -0.00000  -0.00000   0.07653
               #11(A1 #7) #12(A1 #8) #13(E1x #3) #14(E1y #3) #15(A1 #9)
  0 O 1s       0.00010  -0.00058   0.00000   0.00000  -0.00069
  0 O 2s      -0.21310  -0.02073   0.00000   0.00000   0.24653
  0 O 3s      -0.51107  -0.02951  -0.00000  -0.00000  -0.00520
  0 O 4s      -0.19586   0.07797  -0.00000  -0.00000   0.01600
  0 O 2px      0.00000   0.00000  -0.07518   0.00000   0.00000
  0 O 2py      0.00000   0.00000   0.00000  -0.07518   0.00000
  0 O 2pz     -0.25431  -0.03019   0.00000   0.00000   0.31721
  0 O 3px      0.00000  -0.00000   0.57533   0.00000   0.00000
  0 O 3py      0.00000  -0.00000   0.00000   0.57533   0.00000
  0 O 3pz     -0.24500  -0.50317   0.00000   0.00000  -0.19645
  0 O 4px      0.00000   0.00000  -0.81415   0.00000   0.00000
  0 O 4py      0.00000   0.00000   0.00000  -0.81415  -0.00000
  0 O 4pz      0.00286   0.76732  -0.00000   0.00000   0.16672
  0 O 3dxy     0.00000   0.00000   0.00000  -0.00000  -0.00000
  0 O 3dyz    -0.00000   0.00000  -0.00000  -0.02017  -0.00000
  0 O 3dz^2    0.01646   0.29580   0.00000  -0.00000  -0.39645
  0 O 3dxz     0.00000   0.00000  -0.02017   0.00000  -0.00000
 0 O 3dx2-y2  -0.00000   0.00000  -0.00000   0.00000  -0.00000
  1 H 1s       0.48515  -0.07290   0.00000   0.00000  -0.40802
  1 H 2s       0.10239  -0.15035   0.00000   0.00000   0.42145
  1 H 3s      -0.53111   0.16491  -0.00000   0.00000  -0.48111
  1 H 2px     -0.00000   0.00000  -0.00958   0.00000  -0.00000
  1 H 2py     -0.00000  -0.00000   0.00000  -0.00958  -0.00000
  1 H 2pz      0.04608  -0.08455  -0.00000  -0.00000  -0.19794
               #16(A1 #10) #17(E1y #4) #18(E1x #4) #19(E2x #1) #20(E2y #1)
  0 O 1s       0.00099   0.00000   0.00000   0.00000   0.00000
  0 O 2s      -0.10196   0.00000   0.00000   0.00000   0.00000
  0 O 3s       0.58482   0.00000  -0.00000  -0.00000  -0.00000
  0 O 4s      -0.73087   0.00000   0.00000  -0.00000  -0.00000
  0 O 2px      0.00000   0.00000  -0.04893   0.00000   0.00000
  0 O 2py      0.00000   0.04893   0.00000   0.00000   0.00000
  0 O 2pz     -0.03170   0.00000   0.00000   0.00000   0.00000
  0 O 3px     -0.00000   0.00000   0.02493   0.00000   0.00000
  0 O 3py      0.00000  -0.02493   0.00000   0.00000   0.00000
  0 O 3pz     -0.13086  -0.00000  -0.00000   0.00000   0.00000
  0 O 4px     -0.00000   0.00000  -0.00495   0.00000   0.00000
  0 O 4py     -0.00000   0.00495  -0.00000  -0.00000   0.00000
  0 O 4pz      0.11266   0.00000  -0.00000  -0.00000   0.00000
  0 O 3dxy     0.00000  -0.00000   0.00000  -0.00000   1.00000
  0 O 3dyz    -0.00000  -0.82736  -0.00000  -0.00000   0.00000
  0 O 3dz^2   -0.15673   0.00000   0.00000   0.00000   0.00000
  0 O 3dxz    -0.00000  -0.00000   0.82736  -0.00000   0.00000
 0 O 3dx2-y2  -0.00000   0.00000  -0.00000   1.00000  -0.00000
  1 H 1s       0.19155   0.00000   0.00000   0.00000   0.00000
  1 H 2s       0.11740  -0.00000   0.00000   0.00000  -0.00000
  1 H 3s       0.02384  -0.00000  -0.00000   0.00000  -0.00000
  1 H 2px     -0.00000   0.00000   0.55896  -0.00000  -0.00000
  1 H 2py     -0.00000  -0.55896   0.00000  -0.00000  -0.00000
  1 H 2pz      0.08366   0.00000   0.00000   0.00000  -0.00000
               #21(A1 #11) #22(E1y #5) #23(E1x #5) #24(A1 #12)
  0 O 1s       0.00004   0.00000   0.00000   0.00155
  0 O 2s      -0.01988   0.00000   0.00000  -0.08646
  0 O 3s      -0.17450  -0.00000  -0.00000  -0.12165
  0 O 4s       0.10565   0.00000   0.00000  -0.09845
  0 O 2px      0.00000   0.00000   0.01384   0.00000
  0 O 2py      0.00000   0.01384   0.00000   0.00000
  0 O 2pz     -0.01849   0.00000   0.00000  -0.09273
  0 O 3px     -0.00000  -0.00000  -0.00870   0.00000
  0 O 3py      0.00000  -0.00870   0.00000   0.00000
  0 O 3pz     -0.13374  -0.00000  -0.00000  -0.00149
  0 O 4px      0.00000  -0.00000  -0.01157   0.00000
  0 O 4py      0.00000  -0.01157  -0.00000  -0.00000
  0 O 4pz      0.14123   0.00000   0.00000  -0.02587
  0 O 3dxy    -0.00000   0.00000   0.00000  -0.00000
  0 O 3dyz    -0.00000   0.56040   0.00000   0.00000
  0 O 3dz^2   -0.73656   0.00000   0.00000  -0.39404
  0 O 3dxz    -0.00000  -0.00000   0.56040  -0.00000
 0 O 3dx2-y2  -0.00000  -0.00000   0.00000  -0.00000
  1 H 1s       0.04667   0.00000   0.00000   0.12195
  1 H 2s      -0.24990   0.00000   0.00000  -0.26668
  1 H 3s       0.22430  -0.00000  -0.00000   0.20957
  1 H 2px      0.00000  -0.00000  -0.82798  -0.00000
  1 H 2py      0.00000  -0.82798  -0.00000   0.00000
  1 H 2pz      0.51221   0.00000  -0.00000  -0.82072
 ** Mulliken pop on meta-lowdin orthogonal AOs  **
 ** Mulliken pop  **
pop of  0 O 1s        1.99999
pop of  0 O 2s        1.65922
pop of  0 O 3s        0.02300
pop of  0 O 4s        0.00294
pop of  0 O 2px       1.94558
pop of  0 O 2py       1.94558
pop of  0 O 2pz       1.62922
pop of  0 O 3px       0.04946
pop of  0 O 3py       0.04946
pop of  0 O 3pz       0.00491
pop of  0 O 4px       0.00071
pop of  0 O 4py       0.00071
pop of  0 O 4pz       0.00002
pop of  0 O 3dxy      0.00000
pop of  0 O 3dyz      0.00181
pop of  0 O 3dz^2     0.01323
pop of  0 O 3dxz      0.00181
pop of  0 O 3dx2-y2    0.00000
pop of  1 H 1s        0.63163
pop of  1 H 2s        0.02237
pop of  1 H 3s        0.01290
pop of  1 H 2px       0.00244
pop of  1 H 2py       0.00244
pop of  1 H 2pz       0.00056
 ** Mulliken atomic charges  **
charge of  0O =     -1.32765
charge of  1H =      0.32765
Dipole moment(X, Y, Z, Debye):  0.00000,  0.00000,  1.58812
Active space irreps [ 0  0  2  3  0  0  2  3  0  0  0  2  3  0  0  3  2 10 11  0  3  2  0]
Set CASCI wfnsym 0 based on HF determinant
Active space CI wfn symmetry = A1

******** CASCI flags ********
CAS (4e+4e, 23o), ncore = 1, nvir = 0
natorb = False
canonicalization = True
sorting_mo_energy = False
max_memory 16000 (MB)
******** <class 'pyscf.fci.direct_spin1_symm.FCISolver'> ********
max. cycles = 200
conv_tol = 1e-08
davidson only = True
linear dependence = 1e-10
level shift = 0.001
max iter space = 12
max_memory 16000 MB
nroots = 1
pspace_size = 0
spin = None
Input CI wfn symmetry = A1
Start CASCI
    CPU time for integral transformation to CAS space      0.00 sec, wall time      0.00 sec
core energy = -54.6912000279106
    CPU time for effective h1e in CAS space      0.00 sec, wall time      0.00 sec
Guessing CI wfn symmetry = 0
tol 1e-08  toloose 0.0001
max_cycle 200  max_space 12  max_memory 16000  incore False
davidson 0 1  |r|= 0.912  e= [-20.59232845]  max|de|= -20.6  lindep=    1
davidson 1 2  |r|= 0.328  e= [-20.78144408]  max|de|= -0.189  lindep= 0.99
davidson 2 3  |r|= 0.126  e= [-20.79941363]  max|de|= -0.018  lindep= 0.885
davidson 3 4  |r|= 0.0526  e= [-20.80243568]  max|de|= -0.00302  lindep= 0.832
davidson 4 5  |r|= 0.0243  e= [-20.80310398]  max|de|= -0.000668  lindep= 0.894
davidson 5 6  |r|= 0.00882  e= [-20.80321411]  max|de|= -0.00011  lindep= 0.878
davidson 6 7  |r|= 0.00331  e= [-20.80322724]  max|de|= -1.31e-05  lindep= 0.922
davidson 7 8  |r|= 0.00143  e= [-20.80322929]  max|de|= -2.04e-06  lindep= 0.916
davidson 8 9  |r|= 0.000682  e= [-20.80322969]  max|de|= -3.99e-07  lindep= 0.836
davidson 9 10  |r|= 0.000341  e= [-20.80322979]  max|de|= -1.02e-07  lindep= 0.907
davidson 10 11  |r|= 0.000164  e= [-20.80322981]  max|de|= -2.27e-08  lindep= 0.811
root 0 converged  |r|= 8.17e-05  e= -20.803229815499428  max|de|= -5.42e-09
converged 11 12  |r|= 8.17e-05  e= [-20.80322982]  max|de|= -5.42e-09
    CPU time for FCI solver   1074.60 sec, wall time    953.24 sec
Density matrix diagonal elements [1.98257843e+00 1.96557716e+00 1.95353600e+00 1.95353600e+00
 8.06935504e-04 6.87759723e-03 2.42658870e-02 2.42658870e-02
 8.59970879e-03 6.59658975e-03 7.02936293e-03 1.33262085e-02
 1.33262086e-02 8.83251751e-03 6.83488536e-03 5.42205746e-03
 5.42205747e-03 4.71909123e-03 4.71908448e-03 1.39883583e-03
 6.91282406e-04 6.91282156e-04 9.46938082e-04]
i = 1  <i|F|i> = -20.19592243
i = 2  <i|F|i> =  -1.02185000
i = 3  <i|F|i> =  -0.31245068
i = 4  <i|F|i> =  -0.12026297
i = 5  <i|F|i> =  -0.12026297
i = 6  <i|F|i> =   0.22153894
i = 7  <i|F|i> =   0.46160433
i = 8  <i|F|i> =   0.49356653
i = 9  <i|F|i> =   0.49356653
i = 10  <i|F|i> =   0.54892684
i = 11  <i|F|i> =   0.74981759
i = 12  <i|F|i> =   1.63701097
i = 13  <i|F|i> =   1.73628276
i = 14  <i|F|i> =   1.73628276
i = 15  <i|F|i> =   1.87152700
i = 16  <i|F|i> =   2.11604687
i = 17  <i|F|i> =   2.27239219
i = 18  <i|F|i> =   2.27239219
i = 19  <i|F|i> =   2.44827764
i = 20  <i|F|i> =   2.44827765
i = 21  <i|F|i> =   3.51652088
i = 22  <i|F|i> =   3.64735112
[...]
root 0 converged  |r|= 0.00173  e= 0.9230978091418495  max|de|= -3.59e-06
converged 8 9  |r|= 0.00173  e= [0.92309781]  max|de|= -3.59e-06
ROHF wavefunction is stable in the internal stability analysis
Freeze 0 electrons in irreps []
    10 free electrons in irreps A1 E1x E1y E2x E2y




******** <class 'pyscf.scf.hf_symm.SymAdaptedROHF'> ********
method = SymAdaptedROHF-ROHF-RHF
initial guess = minao
damping factor = 0
level_shift factor = 0
DIIS = <class 'pyscf.scf.diis.CDIIS'>
diis_start_cycle = 1
diis_space = 8
SCF conv_tol = 1e-09
SCF conv_tol_grad = None
SCF max_cycles = 50
direct_scf = True
direct_scf_tol = 1e-13
chkfile to save SCF result = /var/folders/7m/f464jvrs78n7m3djcnsxfxgr0000gn/T/tmp72j2178j
max_memory 16000 MB (current use 0 MB)
num. doubly occ = 5  num. singly occ = 0
******** <class 'pyscf.scf.hf_symm.SymAdaptedROHF'> Newton solver flags ********
SCF tol = 1e-09
conv_tol_grad = None
max. SCF cycles = 50
direct_scf = True
direct_scf_tol = 1e-13
chkfile to save SCF result = /var/folders/7m/f464jvrs78n7m3djcnsxfxgr0000gn/T/tmp72j2178j
max_cycle_inner = 12
max_stepsize = 0.05
ah_start_tol = 1e+09
ah_level_shift = 0
ah_conv_tol = 1e-12
ah_lindep = 1e-14
ah_start_cycle = 1
ah_max_cycle = 40
ah_grad_trust_region = 2.5
kf_interval = 4
kf_trust_region = 5
canonicalization = True
max_memory 16000 MB (current use 0 MB)
Set conv_tol_grad to 3.16228e-05
HOMO (E1x) = -0.117982022128209  LUMO (A1) = 0.223391213546392
double occ irrep_nelec = [3, 1, 1, 0, 0]
single occ irrep_nelec = [0, 0, 0, 0, 0]
  Roothaan mo_energy =
[-20.23150919  -0.86317009  -0.19933533   0.22339121   0.47870806
   0.53620653   0.59016237   1.41181617   1.82481187   2.16381228
   2.64522921   3.93438663  -0.11798202   0.49839045   1.74787591
   2.22404132   3.04174938  -0.11798202   0.49839045   1.74787591
   2.22404132   3.04174938   2.47282654   2.47282654]
  alpha mo_energy =
[-20.23150919  -0.86317009  -0.19933533   0.22339121   0.47870806
   0.53620653   0.59016237   1.41181617   1.82481187   2.16381228
   2.64522921   3.93438663  -0.11798202   0.49839045   1.74787591
   2.22404132   3.04174938  -0.11798202   0.49839045   1.74787591
   2.22404132   3.04174938   2.47282654   2.47282654]
  beta  mo_energy =
[-20.23150919  -0.86317009  -0.19933533   0.22339121   0.47870806
   0.53620653   0.59016237   1.41181617   1.82481187   2.16381228
   2.64522921   3.93438663  -0.11798202   0.49839045   1.74787591
   2.22404132   3.04174938  -0.11798202   0.49839045   1.74787591
   2.22404132   3.04174938   2.47282654   2.47282654]
E1 = -114.68755945208186  Ecoul = 35.8138010787512
Initial guess E= -75.3459103005307  |g|= 9.70279e-06
    CPU time for initializing second order scf      0.01 sec, wall time      0.01 sec
    |g|= 9.7e-06 (keyframe)
CIAH eigen-sel 0
... AH step 1  index= 0  |dx|= 1.3823e-05  eig= -1.0105e-11  v[0]= -1  lindep= 9.4144e-11
    imic 1(1)  |g|= 1.38e-05  |dxi|= 1.04e-06  max(|x|)= 3.95e-07  |dr|= 1.04e-06  eig= -1.01e-11  seig= 9.41e-11
Set ah_start_tol 4.85139e-05, ah_start_cycle 1, max_cycle 35
CIAH eigen-sel 0
... AH step 2  index= 0  |dx|= 4.4652e-06  eig= -2.6416e-11  v[0]= 1  lindep= 5.9826e-12
    imic 2(2)  |g|= 4.47e-06  |dxi|= 4.32e-06  max(|x|)= 2.99e-06  |dr|= 5.04e-06  eig= -2.64e-11  seig= 5.98e-12
Set ah_start_tol 6.91132e-05, ah_start_cycle 1, max_cycle 35
    tot inner=2  3 JK  |g|= 4.47e-06  |u-1|= 5.04e-06
    CPU time for aug_hess in 2 inner iters      0.00 sec, wall time      0.00 sec
Overlap to initial guess, SVD = []
Overlap to last step, SVD = []
HOMO (E1x) = -0.117981668152156  LUMO (A1) = 0.223391611575062
double occ irrep_nelec = [3, 1, 1, 0, 0]
single occ irrep_nelec = [0, 0, 0, 0, 0]
  Roothaan mo_energy =
[-20.23150706  -0.86316897  -0.19933362   0.22339161   0.47870769
   0.53620798   0.5901629    1.41181839   1.82481209   2.1638133
   2.64523123   3.93438865  -0.11798167   0.49839047   1.74787656
   2.2240428    3.04175149  -0.11798167   0.49839047   1.74787656
   2.2240428    3.04175149   2.47282727   2.47282727]
  alpha mo_energy =
[-20.23150706  -0.86316897  -0.19933362   0.22339161   0.47870769
   0.53620798   0.5901629    1.41181839   1.82481209   2.1638133
   2.64523123   3.93438865  -0.11798167   0.49839047   1.74787656
   2.2240428    3.04175149  -0.11798167   0.49839047   1.74787656
   2.2240428    3.04175149   2.47282727   2.47282727]
  beta  mo_energy =
[-20.23150706  -0.86316897  -0.19933362   0.22339161   0.47870769
   0.53620798   0.5901629    1.41181839   1.82481209   2.1638133
   2.64523123   3.93438865  -0.11798167   0.49839047   1.74787656
   2.2240428    3.04175149  -0.11798167   0.49839047   1.74787656
   2.2240428    3.04175149   2.47282727   2.47282727]
E1 = -114.68757076852548  Ecoul = 35.813812395158315
macro= 0  E= -75.3459103005672  delta_E= -3.65077e-11  |g|= 9.70279e-06  1 KF 3 JK
    CPU time for cycle= 1      0.01 sec, wall time      0.01 sec
Canonicalize SCF orbitals
macro X = 1  E=-75.3459103005672  |g|= 9.70279e-06  total 2 KF 5 JK
    CPU time for Second order SCF      0.02 sec, wall time      0.02 sec
converged SCF energy = -75.3459103005672
**** SCF Summaries ****
Total Energy =                         -75.345910300567169
Nuclear Repulsion Energy =               3.527848072800000
One-electron Energy =                 -114.687570768525475
Two-electron Energy =                   35.813812395158315
Wave-function symmetry = Coov
occupancy for each irrep:     A1  E1x  E1y  E2x  E2y
double occ                     3    1    1    0    0
single occ                     0    0    0    0    0
**** MO energy ****
                          Roothaan           | alpha              | beta
MO #1   (A1  #1 ) energy= -20.2315070634198  | -20.2315070634197  | -20.2315070634197  occ= 2
MO #2   (A1  #2 ) energy= -0.863168971021909 | -0.863168971021911 | -0.863168971021911 occ= 2
MO #3   (A1  #3 ) energy= -0.199333618358838 | -0.199333618358838 | -0.199333618358838 occ= 2
MO #4   (E1x #1 ) energy= -0.11798166815195  | -0.11798166815195  | -0.11798166815195  occ= 2
MO #5   (E1y #1 ) energy= -0.117981668151951 | -0.117981668151951 | -0.117981668151951 occ= 2
MO #6   (A1  #4 ) energy= 0.223391611574947  | 0.223391611574947  | 0.223391611574947  occ= 0
MO #7   (A1  #5 ) energy= 0.478707686588962  | 0.478707686588962  | 0.478707686588962  occ= 0
MO #8   (E1x #2 ) energy= 0.498390466299327  | 0.498390466299327  | 0.498390466299327  occ= 0
MO #9   (E1y #2 ) energy= 0.498390466299326  | 0.498390466299325  | 0.498390466299325  occ= 0
MO #10  (A1  #6 ) energy= 0.536207977114093  | 0.536207977114094  | 0.536207977114094  occ= 0
MO #11  (A1  #7 ) energy= 0.590162899051703  | 0.590162899051703  | 0.590162899051703  occ= 0
MO #12  (A1  #8 ) energy= 1.41181839061939   | 1.41181839061939   | 1.41181839061939   occ= 0
MO #13  (E1x #3 ) energy= 1.74787655584931   | 1.74787655584931   | 1.74787655584931   occ= 0
MO #14  (E1y #3 ) energy= 1.74787655584932   | 1.74787655584931   | 1.74787655584931   occ= 0
MO #15  (A1  #9 ) energy= 1.82481208633955   | 1.82481208633955   | 1.82481208633955   occ= 0
MO #16  (A1  #10) energy= 2.16381329734396   | 2.16381329734396   | 2.16381329734396   occ= 0
MO #17  (E1x #4 ) energy= 2.22404280014029   | 2.22404280014029   | 2.22404280014029   occ= 0
MO #18  (E1y #4 ) energy= 2.2240428001403    | 2.22404280014029   | 2.22404280014029   occ= 0
MO #19  (E2x #1 ) energy= 2.47282727081097   | 2.47282727081097   | 2.47282727081097   occ= 0
MO #20  (E2y #1 ) energy= 2.47282727081097   | 2.47282727081097   | 2.47282727081097   occ= 0
MO #21  (A1  #11) energy= 2.64523123177584   | 2.64523123177584   | 2.64523123177584   occ= 0
MO #22  (E1x #5 ) energy= 3.04175149447739   | 3.04175149447739   | 3.04175149447739   occ= 0
MO #23  (E1y #5 ) energy= 3.04175149447739   | 3.04175149447739   | 3.04175149447739   occ= 0
MO #24  (A1  #12) energy= 3.93438864551156   | 3.93438864551156   | 3.93438864551156   occ= 0
 ** MO coefficients (expansion on meta-Lowdin AOs) **
               #1(A1 #1) #2(A1 #2) #3(A1 #3) #4(E1x #1) #5(E1y #1)
  0 O 1s       1.00000   0.00025  -0.00032   0.00000   0.00000
  0 O 2s       0.00030  -0.94442  -0.23735   0.00000  -0.00000
  0 O 3s      -0.00051  -0.01562  -0.07671   0.00000  -0.00000
  0 O 4s       0.00044   0.00930  -0.01921   0.00000  -0.00000
  0 O 2px      0.00000   0.00000   0.00000   0.98940   0.00000
  0 O 2py      0.00000  -0.00000   0.00000   0.00000   0.98940
  0 O 2pz      0.00062  -0.04901   0.77217   0.00000   0.00000
  0 O 3px     -0.00000  -0.00000  -0.00000   0.14142  -0.00000
  0 O 3py      0.00000   0.00000   0.00000   0.00000   0.14142
  0 O 3pz     -0.00022   0.01261   0.04623  -0.00000  -0.00000
  0 O 4px      0.00000  -0.00000  -0.00000   0.01732   0.00000
  0 O 4py     -0.00000  -0.00000   0.00000  -0.00000   0.01732
  0 O 4pz      0.00043   0.01089   0.00597  -0.00000  -0.00000
  0 O 3dxy    -0.00000  -0.00000  -0.00000   0.00000   0.00000
  0 O 3dyz    -0.00000  -0.00000   0.00000  -0.00000   0.01443
  0 O 3dz^2   -0.00015  -0.00984   0.02787  -0.00000  -0.00000
  0 O 3dxz    -0.00000  -0.00000   0.00000   0.01443   0.00000
 0 O 3dx2-y2  -0.00000  -0.00000   0.00000  -0.00000  -0.00000
  1 H 1s      -0.00016  -0.32286   0.58122   0.00000   0.00000
  1 H 2s      -0.00081   0.00963   0.00982  -0.00000   0.00000
  1 H 3s      -0.00008  -0.01739  -0.00750   0.00000  -0.00000
  1 H 2px     -0.00000  -0.00000  -0.00000   0.02418  -0.00000
  1 H 2py     -0.00000   0.00000  -0.00000   0.00000   0.02418
  1 H 2pz      0.00032   0.01818  -0.01556  -0.00000   0.00000
               #6(A1 #4) #7(A1 #5) #8(E1x #2) #9(E1y #2) #10(A1 #6)
  0 O 1s       0.00071  -0.00013   0.00000   0.00000  -0.00018
  0 O 2s      -0.06129   0.08162   0.00000   0.00000   0.16076
  0 O 3s      -0.09685  -0.28057   0.00000  -0.00000  -0.10613
  0 O 4s       0.15201  -0.33060   0.00000   0.00000  -0.14223
  0 O 2px      0.00000   0.00000  -0.12612   0.00000   0.00000
  0 O 2py     -0.00000  -0.00000   0.00000  -0.12612   0.00000
  0 O 2pz     -0.20030   0.09771   0.00000  -0.00000   0.49077
  0 O 3px     -0.00000  -0.00000   0.80769  -0.00000   0.00000
  0 O 3py      0.00000   0.00000   0.00000   0.80769   0.00000
  0 O 3pz     -0.01279   0.72642  -0.00000   0.00000  -0.18561
  0 O 4px      0.00000   0.00000   0.57530   0.00000   0.00000
  0 O 4py      0.00000   0.00000  -0.00000   0.57530   0.00000
  0 O 4pz      0.12019   0.47107  -0.00000  -0.00000  -0.31036
  0 O 3dxy    -0.00000  -0.00000   0.00000   0.00000  -0.00000
  0 O 3dyz     0.00000   0.00000  -0.00000  -0.00485  -0.00000
  0 O 3dz^2   -0.03246  -0.02986  -0.00000  -0.00000   0.03985
  0 O 3dxz     0.00000   0.00000  -0.00485   0.00000   0.00000
 0 O 3dx2-y2  -0.00000  -0.00000  -0.00000  -0.00000   0.00000
  1 H 1s       0.22592  -0.20565   0.00000  -0.00000  -0.58700
  1 H 2s       0.82994   0.03399  -0.00000  -0.00000   0.12343
  1 H 3s       0.41005   0.04294   0.00000   0.00000   0.45325
  1 H 2px      0.00000  -0.00000   0.02717  -0.00000   0.00000
  1 H 2py      0.00000  -0.00000   0.00000   0.02717   0.00000
  1 H 2pz     -0.00066   0.00039  -0.00000  -0.00000  -0.06482
               #11(A1 #7) #12(A1 #8) #13(E1x #3) #14(E1y #3) #15(A1 #9)
  0 O 1s      -0.00002  -0.00031   0.00000   0.00000   0.00027
  0 O 2s      -0.04159   0.11126   0.00000   0.00000   0.00987
  0 O 3s      -0.69802  -0.10326  -0.00000   0.00000  -0.24728
  0 O 4s      -0.53108   0.17411  -0.00000   0.00000   0.18082
  0 O 2px      0.00000   0.00000   0.07037   0.00000   0.00000
  0 O 2py     -0.00000   0.00000   0.00000  -0.07037  -0.00000
  0 O 2pz     -0.19595   0.26101   0.00000  -0.00000  -0.04641
  0 O 3px      0.00000  -0.00000  -0.56054   0.00000  -0.00000
  0 O 3py     -0.00000  -0.00000   0.00000   0.56054   0.00000
  0 O 3pz     -0.35743  -0.24929   0.00000  -0.00000   0.46564
  0 O 4px      0.00000  -0.00000   0.80934   0.00000  -0.00000
  0 O 4py     -0.00000  -0.00000   0.00000  -0.80934   0.00000
  0 O 4pz     -0.10293   0.26551   0.00000  -0.00000  -0.72767
  0 O 3dxy    -0.00000   0.00000   0.00000  -0.00000   0.00000
  0 O 3dyz    -0.00000   0.00000  -0.00000   0.04362  -0.00000
  0 O 3dz^2    0.10127  -0.14680  -0.00000   0.00000  -0.26795
  0 O 3dxz    -0.00000  -0.00000  -0.04362  -0.00000  -0.00000
 0 O 3dx2-y2   0.00000  -0.00000  -0.00000  -0.00000  -0.00000
  1 H 1s       0.15877  -0.29905   0.00000  -0.00000   0.01863
  1 H 2s      -0.00932   0.39987   0.00000  -0.00000   0.14495
  1 H 3s      -0.11140  -0.68650   0.00000  -0.00000  -0.24358
  1 H 2px     -0.00000  -0.00000  -0.15463  -0.00000   0.00000
  1 H 2py      0.00000  -0.00000  -0.00000   0.15463  -0.00000
  1 H 2pz      0.06550   0.06087  -0.00000   0.00000   0.07135
               #16(A1 #10) #17(E1x #4) #18(E1y #4) #19(E2x #1) #20(E2y #1)
  0 O 1s       0.00082   0.00000   0.00000   0.00000   0.00000
  0 O 2s      -0.02988   0.00000   0.00000   0.00000   0.00000
  0 O 3s       0.54515   0.00000   0.00000   0.00000   0.00000
  0 O 4s      -0.69934  -0.00000  -0.00000  -0.00000  -0.00000
  0 O 2px      0.00000  -0.01536   0.00000   0.00000   0.00000
  0 O 2py      0.00000   0.00000  -0.01536   0.00000   0.00000
  0 O 2pz     -0.00966   0.00000  -0.00000   0.00000   0.00000
  0 O 3px      0.00000  -0.08644  -0.00000  -0.00000   0.00000
  0 O 3py     -0.00000   0.00000  -0.08644  -0.00000   0.00000
  0 O 3pz     -0.00689  -0.00000   0.00000  -0.00000   0.00000
  0 O 4px     -0.00000   0.09692  -0.00000  -0.00000   0.00000
  0 O 4py      0.00000   0.00000   0.09692  -0.00000   0.00000
  0 O 4pz     -0.14782  -0.00000   0.00000  -0.00000  -0.00000
  0 O 3dxy     0.00000  -0.00000  -0.00000  -0.00000   1.00000
  0 O 3dyz     0.00000  -0.00000   0.79772  -0.00000  -0.00000
  0 O 3dz^2   -0.32751   0.00000   0.00000   0.00000  -0.00000
  0 O 3dxz    -0.00000   0.79772  -0.00000  -0.00000  -0.00000
 0 O 3dx2-y2   0.00000  -0.00000   0.00000   1.00000  -0.00000
  1 H 1s       0.06084   0.00000  -0.00000   0.00000   0.00000
  1 H 2s       0.24670   0.00000   0.00000  -0.00000   0.00000
  1 H 3s      -0.13685   0.00000   0.00000  -0.00000  -0.00000
  1 H 2px      0.00000   0.58868  -0.00000  -0.00000   0.00000
  1 H 2py      0.00000  -0.00000   0.58868   0.00000   0.00000
  1 H 2pz     -0.01725  -0.00000  -0.00000  -0.00000  -0.00000
               #21(A1 #11) #22(E1x #5) #23(E1y #5) #24(A1 #12)
  0 O 1s       0.00064   0.00000   0.00000   0.00010
  0 O 2s      -0.00801   0.00000   0.00000   0.01764
  0 O 3s       0.09517  -0.00000  -0.00000   0.17094
  0 O 4s      -0.08054   0.00000  -0.00000  -0.07931
  0 O 2px      0.00000  -0.00073   0.00000   0.00000
  0 O 2py     -0.00000   0.00000  -0.00073   0.00000
  0 O 2pz     -0.03155   0.00000  -0.00000   0.03239
  0 O 3px      0.00000  -0.07715   0.00000  -0.00000
  0 O 3py      0.00000  -0.00000  -0.07715   0.00000
  0 O 3pz      0.13503  -0.00000  -0.00000   0.10198
  0 O 4px     -0.00000   0.06566   0.00000  -0.00000
  0 O 4py     -0.00000  -0.00000   0.06566  -0.00000
  0 O 4pz     -0.15590  -0.00000  -0.00000  -0.10207
  0 O 3dxy     0.00000   0.00000   0.00000  -0.00000
  0 O 3dyz     0.00000  -0.00000  -0.60126  -0.00000
  0 O 3dz^2    0.67310  -0.00000  -0.00000   0.57591
  0 O 3dxz     0.00000  -0.60126   0.00000   0.00000
 0 O 3dx2-y2   0.00000   0.00000   0.00000   0.00000
  1 H 1s      -0.01599   0.00000  -0.00000  -0.03315
  1 H 2s       0.19057  -0.00000   0.00000   0.12827
  1 H 3s      -0.23899  -0.00000   0.00000  -0.07318
  1 H 2px      0.00000   0.79260   0.00000   0.00000
  1 H 2py     -0.00000   0.00000   0.79260  -0.00000
  1 H 2pz     -0.62778   0.00000   0.00000   0.76664
 ** Mulliken pop on meta-lowdin orthogonal AOs  **
 ** Mulliken pop  **
pop of  0 O 1s        2.00000
pop of  0 O 2s        1.89653
pop of  0 O 3s        0.01226
pop of  0 O 4s        0.00091
pop of  0 O 2px       1.95781
pop of  0 O 2py       1.95781
pop of  0 O 2pz       1.19731
pop of  0 O 3px       0.04000
pop of  0 O 3py       0.04000
pop of  0 O 3pz       0.00459
pop of  0 O 4px       0.00060
pop of  0 O 4py       0.00060
pop of  0 O 4pz       0.00031
pop of  0 O 3dxy      0.00000
pop of  0 O 3dyz      0.00042
pop of  0 O 3dz^2     0.00175
pop of  0 O 3dxz      0.00042
pop of  0 O 3dx2-y2    0.00000
pop of  1 H 1s        0.88410
pop of  1 H 2s        0.00038
pop of  1 H 3s        0.00072
pop of  1 H 2px       0.00117
pop of  1 H 2py       0.00117
pop of  1 H 2pz       0.00115
 ** Mulliken atomic charges  **
charge of  0O =     -1.11131
charge of  1H =      0.11131
Dipole moment(X, Y, Z, Debye):  0.00000,  0.00000,  0.61334
Active space irreps [ 0  0  2  3  0  0  2  3  0  0  0  2  3  0  0  2  3 10 11  0  2  3  0]
Set CASCI wfnsym 0 based on HF determinant
Active space CI wfn symmetry = A1

******** CASCI flags ********
CAS (4e+4e, 23o), ncore = 1, nvir = 0
natorb = False
canonicalization = True
sorting_mo_energy = False
max_memory 16000 (MB)
******** <class 'pyscf.fci.direct_spin1_symm.FCISolver'> ********
max. cycles = 200
conv_tol = 1e-08
davidson only = True
linear dependence = 1e-10
level shift = 0.001
max iter space = 12
max_memory 16000 MB
nroots = 1
pspace_size = 0
spin = None
Input CI wfn symmetry = A1
Start CASCI
    CPU time for integral transformation to CAS space      0.00 sec, wall time      0.00 sec
core energy = -56.4555088252266
    CPU time for effective h1e in CAS space      0.00 sec, wall time      0.00 sec
Guessing CI wfn symmetry = 0
tol 1e-08  toloose 0.0001
max_cycle 200  max_space 12  max_memory 16000  incore False
davidson 0 1  |r|= 0.879  e= [-18.89040147]  max|de|= -18.9  lindep=    1
davidson 1 2  |r|= 0.367  e= [-19.09028306]  max|de|= -0.2  lindep= 0.986
davidson 2 3  |r|= 0.151  e= [-19.11764049]  max|de|= -0.0274  lindep= 0.941
davidson 3 4  |r|= 0.0716  e= [-19.12246574]  max|de|= -0.00483  lindep= 0.876
davidson 4 5  |r|= 0.0371  e= [-19.12379672]  max|de|= -0.00133  lindep= 0.91
davidson 5 6  |r|= 0.0163  e= [-19.12411292]  max|de|= -0.000316  lindep= 0.89
davidson 6 7  |r|= 0.0071  e= [-19.12416895]  max|de|= -5.6e-05  lindep= 0.903
davidson 7 8  |r|= 0.00315  e= [-19.12417967]  max|de|= -1.07e-05  lindep= 0.872
davidson 8 9  |r|= 0.00142  e= [-19.1241817]  max|de|= -2.03e-06  lindep= 0.882
davidson 9 10  |r|= 0.000695  e= [-19.12418214]  max|de|= -4.37e-07  lindep= 0.876
davidson 10 11  |r|= 0.000336  e= [-19.12418225]  max|de|= -1.06e-07  lindep= 0.876
davidson 11 12  |r|= 0.000161  e= [-19.12418227]  max|de|= -2.36e-08  lindep= 0.889
davidson 12 1  |r|= 0.000161  e= [-19.12418227]  max|de|= 4.14e-12  lindep=    1
root 0 converged  |r|= 7.31e-05  e= -19.124182274009492  max|de|= -4.35e-09
converged 13 2  |r|= 7.31e-05  e= [-19.12418227]  max|de|= -4.35e-09
    CPU time for FCI solver   1165.51 sec, wall time   1025.56 sec
Density matrix diagonal elements [1.97683995e+00 1.92213106e+00 1.94812925e+00 1.94812925e+00
 6.87926457e-03 7.09129323e-03 2.87225297e-02 2.87225297e-02
 4.60460409e-02 1.10337645e-02 1.16334569e-02 1.39301933e-02
 1.39301933e-02 7.59719274e-03 5.85783171e-03 4.27956517e-03
 4.27956517e-03 4.53562458e-03 4.53561981e-03 2.82109598e-03
 1.10827053e-03 1.10827053e-03 6.58193852e-04]
i = 1  <i|F|i> = -20.26102647
i = 2  <i|F|i> =  -0.88141133
i = 3  <i|F|i> =  -0.21027405
i = 4  <i|F|i> =  -0.12576452
i = 5  <i|F|i> =  -0.12576452
i = 6  <i|F|i> =   0.21967520
i = 7  <i|F|i> =   0.47187035
i = 8  <i|F|i> =   0.49030722
i = 9  <i|F|i> =   0.49030722
i = 10  <i|F|i> =   0.51068039
i = 11  <i|F|i> =   0.57890182
i = 12  <i|F|i> =   1.38975172
i = 13  <i|F|i> =   1.72186503
i = 14  <i|F|i> =   1.72186503
i = 15  <i|F|i> =   1.79797379
i = 16  <i|F|i> =   2.13747740
i = 17  <i|F|i> =   2.19948836
i = 18  <i|F|i> =   2.19948836
i = 19  <i|F|i> =   2.44325033
i = 20  <i|F|i> =   2.44325033
i = 21  <i|F|i> =   2.62026329
i = 22  <i|F|i> =   3.01906852
i = 23  <i|F|i> =   3.01906852
i = 24  <i|F|i> =   3.91145260
CASCI converged
CASCI E = -75.5796910992361  E(CI) = -19.1241822740095  S^2 = 0.0000000
